ITEM: TIMESTEP
3700000
ITEM: NUMBER OF ATOMS
11222
ITEM: BOX BOUNDS mm pp mm
-0.0125 0.0125
-0.0075 0.0075
0 0.015
ITEM: ATOMS id type type x y z ix iy iz vx vy vz fx fy fz omegax omegay omegaz radius f_Temp[0] f_heatSource[0] 
1566 1 1 -0.012 -0.00709827 0.000499999 0 0 0 -0.000186064 -0.0225106 4.74115e-07 4.24214e-05 -6.6636e-06 7.47371e-06 677.03 -473.197 -277.036 0.0005 573 0 
1274 1 1 -0.0105971 -0.00691458 0.000450732 0 0 0 -3.6394e-07 -3.41821e-07 -1.66581e-07 1.82773e-07 1.06415e-07 5.19858e-07 0.000467858 -0.000712476 -0.000723938 0.0005 573 0 
1422 1 1 -0.00941753 -0.00692255 0.000460705 0 0 0 -1.47552e-07 -2.54864e-07 -1.69155e-07 4.008e-06 3.27153e-06 2.18734e-06 0.000151046 0.000196852 2.75306e-05 0.0005 573 0 
1497 1 1 -0.00719629 -0.00695773 0.000470435 0 0 0 -7.72714e-08 -1.78866e-06 4.11286e-07 1.06283e-05 -2.48146e-06 1.57927e-05 0.00278079 0.00160101 0.00175458 0.0005 573 0 
597 1 1 -0.0057882 -0.00671505 0.000839316 0 0 0 -1.27104e-06 -4.3202e-06 -1.92773e-06 4.29262e-06 2.054e-06 -2.77774e-06 -0.00381967 0.00381509 -0.00196639 0.0005 573 0 
598 1 1 -0.00506353 -0.00723228 0.000463698 0 0 0 -2.76096e-06 -3.49702e-06 -2.12901e-06 8.17666e-07 -7.38699e-07 -1.36602e-06 0.00795078 -0.00538318 -0.0014684 0.0005 573 0 
638 1 1 -0.00370349 -0.00669195 0.000561053 0 0 0 -2.13044e-06 -2.93167e-06 -2.90166e-07 2.04834e-07 -5.10712e-08 5.61393e-07 0.00422596 -0.000865533 -0.00154697 0.0005 573 0 
1033 1 1 -0.00274775 -0.0069444 0.000469643 0 0 0 -2.10171e-06 -3.47549e-06 -8.15134e-07 -1.85637e-06 6.63782e-07 -3.81797e-06 0.00510541 -0.000614793 0.000357162 0.0005 573 0 
565 1 1 -0.00178699 -0.00713306 0.000470449 0 0 0 -3.35749e-06 -4.47538e-06 7.02986e-07 -1.10516e-05 9.17291e-06 9.48298e-06 0.00325721 -0.00815827 -0.00790839 0.0005 573 0 
560 1 1 -0.000621042 -0.00700801 0.000479869 0 0 0 -5.79733e-05 2.64008e-05 4.92143e-05 -3.0725e-05 -0.00026789 -0.000620577 -0.0537555 -0.227862 0.0940568 0.0005 573 0 
4612 1 1 0.000413909 -0.00732796 0.000499999 0 0 0 4.78803e-05 -7.25359e-05 -8.31537e-05 9.98345e-05 1.30178e-05 -4.83854e-05 -47.2353 80.6346 933.382 0.0005 573 0 
7049 2 2 -0.000137098 -0.00725779 0.000786516 0 1 0 0.00492897 -0.00518198 -9.756e-05 -0.000112572 9.19765e-06 8.92008e-05 14920.9 20668.2 -5188.43 0.000125 573 0 
4652 1 1 0.00176267 -0.00671027 0.00051855 0 0 0 3.31179e-05 1.16512e-06 9.14238e-06 0.000156923 -1.93135e-05 8.22612e-05 0.0347039 -0.0390367 0.101972 0.0005 573 0 
4687 1 1 0.00270485 -0.00701309 0.000480399 0 0 0 6.98131e-06 1.27885e-05 -6.1023e-06 0.00021487 0.000232333 -0.000152111 -0.0609073 -0.000669145 -0.0262583 0.0005 573 0 
4628 1 1 0.00364077 -0.00726263 0.0005934 0 0 0 -8.19814e-08 -1.92746e-05 -1.25136e-06 8.51975e-05 -0.000411805 -0.000127952 -0.0325275 0.0179066 -0.0773038 0.0005 573 0 
4134 1 1 0.00466436 -0.00734533 0.00046066 0 0 0 5.53201e-06 3.17506e-06 1.21218e-06 0.000114793 3.11242e-05 -7.90633e-07 -0.0011996 -0.0024956 -0.037385 0.0005 573 0 
4428 1 1 0.00551379 -0.00703734 0.000825847 0 0 0 -5.10028e-06 2.41508e-07 3.39622e-06 3.18276e-05 -2.95507e-05 -5.02742e-06 -0.00114138 8.58738e-05 0.00448854 0.0005 573 0 
4215 1 1 0.00667824 -0.00696231 0.000636448 0 0 0 -4.4999e-06 1.37628e-06 3.1379e-06 4.24052e-07 -1.24227e-06 -1.95939e-06 0.00156964 0.00264546 -0.00103716 0.0005 573 0 
3792 1 1 0.00753571 -0.00656802 0.000811815 0 0 0 -2.98451e-06 3.38355e-07 3.08752e-07 3.25102e-06 -7.17853e-06 -1.40841e-05 0.000772867 0.00320225 -0.00110829 0.0005 573 0 
5036 1 1 0.00839834 -0.00676841 0.000460914 0 0 0 -2.30157e-06 3.35709e-07 6.91824e-07 -7.17112e-06 1.72179e-06 9.05938e-07 -0.00130965 -0.00417669 -0.00133022 0.0005 573 0 
4111 1 1 0.00913061 -0.00745053 0.000486495 0 0 0 -1.66259e-06 1.64448e-06 1.02974e-06 4.83845e-06 1.2261e-05 -4.25664e-06 -0.00469711 -0.00176377 -0.00164423 0.0005 573 0 
4352 1 1 0.00947789 -0.00662657 0.000896605 0 0 0 -1.75826e-06 5.85058e-07 2.96698e-07 6.99146e-07 2.21461e-06 -2.48919e-06 0.000711339 -0.000363459 -0.00044555 0.0005 573 0 
4513 1 1 0.0103001 -0.00662339 0.0004474 0 0 0 -8.14661e-07 2.68744e-07 2.32788e-07 6.5975e-08 1.1889e-06 -6.52329e-07 -0.000298328 -0.00103391 -0.000359267 0.0005 573 0 
4897 1 1 0.0111894 -0.00737241 0.000477847 0 0 0 -3.38315e-07 2.20483e-07 2.4944e-07 1.1994e-06 1.94039e-06 -4.77341e-07 -0.000261698 -0.000289359 -0.000859109 0.0005 573 0 
4640 1 1 0.0120279 -0.00686079 0.00049094 0 0 0 -1.16922e-07 -3.74589e-08 1.5229e-07 1.98345e-07 -4.54864e-08 -1.74077e-08 0.000148339 0.000253148 0.000123418 0.0005 573 0 
414 1 1 -0.0120157 -0.00565136 0.00096258 0 0 0 -1.30237e-07 -1.88187e-07 -1.48665e-07 -1.12715e-07 -3.64415e-08 1.27936e-07 0.000253897 0.000146008 -0.000244382 0.0005 573 0 
270 1 1 -0.0111917 -0.00584489 0.000475036 0 0 0 -1.85514e-07 -2.80956e-07 -1.82906e-07 5.253e-07 3.99683e-07 -1.22995e-07 0.000375443 -0.000179825 -0.000395326 0.0005 573 0 
6921 2 2 -0.0106749 -0.00578965 0.000125 0 0 0 0.0012925 -0.00471241 -6.6319e-13 1.59584e-19 -6.36482e-19 0 37.6993 10.34 -112.596 0.000125 573 0 
947 1 1 -0.0102098 -0.00600083 0.000485875 0 0 0 -1.82745e-07 -3.4054e-07 1.1816e-08 -1.23614e-06 -1.9747e-07 9.80686e-07 7.83101e-05 -0.000401942 0.00028347 0.0005 573 0 
6913 2 2 -0.0104649 -0.00554944 0.000125 0 0 0 -0.00102998 0.000419443 2.51301e-13 -7.42911e-20 6.00667e-20 0 -3.35554 -8.23985 -22.364 0.000125 573 0 
6908 2 2 -0.00988232 -0.00559871 0.000125 0 0 0 0.00383392 -0.00886645 4.29119e-13 -1.69379e-20 -8.97065e-20 0 70.9316 30.6714 -206.659 0.000125 573 0 
1637 1 1 -0.00886352 -0.00612985 0.000481114 0 0 0 -2.27689e-07 -2.58546e-07 -8.03617e-07 2.53941e-06 -3.37228e-06 -9.85486e-06 -0.00198785 -0.00129632 -0.000631162 0.0005 573 0 
6926 2 2 -0.00871256 -0.00562594 0.000818632 0 0 0 -0.00932567 0.00679511 -0.00597503 -3.29666e-08 2.83582e-08 -5.3686e-08 -101.333 -140.365 -1.48536 0.000125 573 0 
6936 2 2 -0.00865643 -0.00565955 0.000125 0 0 0 0.00184146 -0.00117059 -3.96463e-13 1.90029e-08 -5.18445e-08 0 19503.3 7159.94 -12929 0.000125 573 0 
6930 2 2 -0.00885276 -0.00552272 0.000629141 0 0 0 3.05031e-06 1.37768e-05 -1.11548e-05 -1.15965e-08 -3.24478e-07 7.55013e-07 -0.388228 0.0572722 -0.00815867 0.000125 573 0 
6886 2 2 -0.00893747 -0.00559585 0.000125 0 0 0 -0.00935892 -0.00993295 -7.39398e-13 8.75635e-19 1.95021e-18 0 79.4636 -74.8714 -807.018 0.000125 573 0 
1203 1 1 -0.00787692 -0.00623463 0.00046081 0 0 0 -6.89363e-07 -1.33008e-06 2.76255e-08 -3.72594e-06 -2.1406e-06 5.32242e-06 0.00231747 -0.00178546 -0.00156872 0.0005 573 0 
208 1 1 -0.00718326 -0.00555147 0.000546803 0 0 0 -1.56495e-07 -1.43962e-06 5.8767e-08 -1.48213e-06 -1.32619e-06 1.40608e-06 -0.000455176 0.000988786 0.00134229 0.0005 573 0 
440 1 1 -0.00646457 -0.00619294 0.000439266 0 0 0 -6.43961e-07 -1.91989e-06 -7.13301e-07 -1.15061e-06 -2.7134e-06 -1.23163e-07 0.00408436 -0.00126005 -0.00316149 0.0005 573 0 
687 1 1 -0.0046301 -0.00634542 0.000497811 0 0 0 -1.09375e-06 -2.23586e-06 4.4364e-07 -1.25224e-08 -2.89622e-08 -3.34466e-08 -0.001608 0.000479292 -0.0010279 0.0005 573 0 
1481 1 1 -0.00388393 -0.00566224 0.000459541 0 0 0 1.34507e-06 -1.74943e-06 2.63012e-08 -2.96179e-07 -1.82282e-07 -6.82135e-07 0.0023474 0.0014365 0.00386905 0.0005 573 0 
1162 1 1 -0.00298651 -0.00600491 0.000471692 0 0 0 5.62245e-07 -2.07892e-06 3.18749e-07 -2.37076e-06 6.25496e-06 6.6667e-07 -0.00029234 -0.000424947 -0.00468839 0.0005 573 0 
1698 1 1 -0.00199744 -0.00617264 0.000446697 0 0 0 -2.28555e-06 -2.14737e-07 2.10069e-06 -4.94624e-05 4.34779e-05 8.73201e-06 -0.00019722 -0.00652973 0.0102144 0.0005 573 0 
492 1 1 -0.00109344 -0.00621011 0.000805425 0 0 0 -1.90874e-05 -3.02712e-08 -4.48187e-06 -0.000154269 6.95583e-06 1.3918e-05 0.0385602 0.0362193 -0.0374751 0.0005 573 0 
518 1 1 -0.000275662 -0.00582283 0.000469601 0 0 0 -3.64902e-06 -3.6771e-06 -3.68881e-07 -6.62853e-05 -7.40133e-05 -5.82094e-05 0.0086881 -0.00264825 -0.0166498 0.0005 573 0 
4354 1 1 0.000640639 -0.00618417 0.000449759 0 0 0 -1.56419e-05 -2.13614e-05 -5.09257e-06 -9.96761e-05 -5.15982e-05 9.84564e-06 0.0631476 -0.0544884 0.0301088 0.0005 573 0 
3531 1 1 0.00157086 -0.00575584 0.000463524 0 0 0 -1.33339e-05 -1.52781e-06 1.19099e-05 -0.000179951 -3.40297e-05 7.08055e-05 -0.0144953 -0.0407557 -0.0378206 0.0005 573 0 
5028 1 1 0.00249253 -0.00605792 0.000485882 0 0 0 -5.0183e-05 4.22263e-05 -0.000153308 0.000201593 9.19319e-05 -0.000328855 -0.102736 0.5484 0.168834 0.0005 573 0 
4810 1 1 0.00344264 -0.00593373 0.000490325 0 0 0 -0.000289505 -0.000129734 -0.000240911 0.0040477 0.00145359 0.00298545 0.795982 -0.69399 -0.428806 0.0005 573 0 
3628 1 1 0.0042244 -0.00649724 0.000479491 0 0 0 -8.1467e-05 -6.56178e-05 -1.1857e-05 -3.02315e-05 -6.81251e-05 -0.000104716 0.0290583 -0.112104 0.338139 0.0005 573 0 
3994 1 1 0.00433633 -0.00554042 0.000476516 0 0 0 -5.27335e-05 -6.93626e-05 6.53601e-05 -0.000481917 -7.38153e-05 -0.000215692 -0.0264183 0.206295 0.0954457 0.0005 573 0 
5099 1 1 0.00528083 -0.00571654 0.000656578 0 0 0 -7.14582e-06 9.26709e-07 -1.38882e-06 -0.000112944 -6.60371e-05 -6.72882e-05 0.00280875 -0.0225476 -0.00785949 0.0005 573 0 
5022 1 1 0.00600881 -0.00629357 0.000445886 0 0 0 -4.07814e-06 5.58412e-07 2.85697e-06 -1.95703e-06 -2.13873e-06 6.78528e-06 -0.000977437 -0.00539808 0.000767289 0.0005 573 0 
5017 1 1 0.00704818 -0.00582594 0.000457188 0 0 0 -2.18909e-06 2.89344e-07 9.6896e-07 2.18521e-06 3.14968e-07 1.6335e-06 -5.71931e-05 -0.00224791 0.000183546 0.0005 573 0 
5015 1 1 0.0079852 -0.00561284 0.00047318 0 0 0 -1.30969e-06 3.47778e-07 5.57754e-07 -2.76229e-08 2.05636e-06 -6.45844e-06 -0.000882806 -4.13082e-05 0.000488812 0.0005 573 0 
3622 1 1 0.00890389 -0.00595766 0.000479646 0 0 0 -1.03905e-06 4.61583e-07 3.85399e-07 8.73132e-07 1.31772e-07 9.61512e-08 -0.0010265 -0.000194353 -0.000648805 0.0005 573 0 
4737 1 1 0.00979588 -0.00559714 0.000446263 0 0 0 -6.89623e-07 1.49699e-07 3.85052e-07 2.99201e-07 6.87883e-08 -1.10574e-06 -0.000239082 -0.000882349 -0.000124938 0.0005 573 0 
3913 1 1 0.0112146 -0.006333 0.000465599 0 0 0 -3.36083e-07 7.07949e-08 3.47798e-07 -5.31888e-08 -4.30351e-07 5.25691e-07 -2.1443e-05 -0.000122652 -0.000163852 0.0005 573 0 
668 1 1 -0.0120215 -0.00479243 0.000480382 0 0 0 -1.89132e-07 -9.73185e-08 4.82816e-08 -5.75028e-06 6.52092e-07 4.50123e-06 0.000306923 -0.000517598 0.00019377 0.0005 573 0 
6910 2 2 -0.0108257 -0.005452 0.000125 0 0 0 -0.0108325 0.0125389 -8.6641e-13 2.17015e-19 1.9503e-18 0 -100.311 -86.6599 726.059 0.000125 573 0 
6889 2 2 -0.0106788 -0.00487325 0.000125 0 0 0 0.0201099 0.0600707 -4.85372e-13 4.47964e-08 -3.22839e-08 0 -345.182 348.735 -1632.27 0.000125 573 0 
6909 2 2 -0.0114765 -0.00455476 0.000125 0 0 0 -0.0345979 0.0278572 5.30729e-13 -1.42015e-08 5.33599e-08 0 -460.94 -340.148 1755.17 0.000125 573 0 
1268 1 1 -0.0106007 -0.00523732 0.000979519 0 0 0 -4.15627e-08 -4.57137e-07 -4.33066e-07 6.31057e-07 3.91689e-07 -1.1115e-05 -0.000629742 -0.000600447 -0.000563181 0.0005 573 0 
6883 2 2 -0.0105515 -0.0052173 0.000125 0 0 0 -0.021521 -0.0258149 -4.47268e-13 -3.96215e-08 3.84591e-08 0 123.336 -257.866 816.463 0.000125 573 0 
6895 2 2 -0.0102682 -0.00537888 0.000125 0 0 0 0.0028609 -0.0015382 7.46651e-13 -3.05082e-19 -2.43788e-19 0 12.3056 22.8872 -78.8173 0.000125 573 0 
6934 2 2 -0.00998612 -0.00532529 0.000125 0 0 0 -0.00568514 -0.0155584 1.62393e-13 8.12417e-19 -1.95033e-18 0 124.467 -45.4812 602.133 0.000125 573 0 
6881 2 2 -0.0100957 -0.00509228 0.000125 0 0 0 -0.0228639 -0.0219505 -2.18646e-13 -1.9926e-19 -1.98118e-19 0 175.604 -182.911 -743.677 0.000125 573 0 
6935 2 2 -0.0100463 -0.00484685 0.000125 0 0 0 -0.017448 -0.0227439 2.13198e-13 1.94918e-19 -2.21832e-19 0 181.951 -139.584 -758.768 0.000125 573 0 
6892 2 2 -0.00979856 -0.00480045 0.000125 0 0 0 -0.0237286 -0.00121966 -6.75891e-13 1.79342e-18 2.43794e-19 0 9.7573 -189.829 990.873 0.000125 573 0 
6890 2 2 -0.00953048 -0.00460102 0.000125 0 0 0 -0.0255066 -0.0122714 -5.99684e-13 5.41367e-08 -1.0871e-08 0 446.736 1531.77 15041.9 0.000125 573 0 
1459 1 1 -0.00942277 -0.00533288 0.000456859 0 0 0 7.64911e-07 -3.98032e-06 -1.47814e-07 2.80882e-06 -6.13596e-05 1.68221e-05 0.0107911 0.00298459 0.00398304 0.0005 573 0 
6898 2 2 -0.00879276 -0.00536307 0.000125 0 0 0 -0.0026056 -0.0266611 -4.47268e-13 -3.31751e-19 2.64479e-18 0 213.289 -20.8448 363.138 0.000125 573 0 
6931 2 2 -0.00904674 -0.00515101 0.00092178 0 0 0 0.0161627 0.0142606 -0.0186519 8.301e-08 3.00499e-08 -1.30192e-07 -832.213 -741.456 -1347.07 0.000125 573 0 
6939 2 2 -0.00869923 -0.00488597 0.000325254 0 0 0 0.00682062 0.00180383 -0.0179567 1.10063e-07 4.38667e-08 -7.87185e-08 144.56 235.771 32.9867 0.000125 573 0 
6896 2 2 -0.00909987 -0.00490973 0.000125 0 0 0 0.00678002 -0.00368546 -7.01294e-13 7.67324e-19 -3.83894e-19 0 29.4837 54.2402 500.303 0.000125 573 0 
6887 2 2 -0.00892856 -0.00513377 0.000125 0 0 0 -0.00194049 -0.0113391 -2.30618e-05 -2.38804e-08 -9.98324e-08 3.44329e-07 83.9481 -13.7206 -453.949 0.000125 573 0 
6938 2 2 -0.00918756 -0.00476048 0.00033292 0 0 0 -0.0113183 0.00296534 0.00685487 0 0 -2.76087e-07 869.17 -3088.13 553.961 0.000125 573 0 
6911 2 2 -0.00884849 -0.00489694 0.000125 0 0 0 -0.0166568 -0.0063922 8.08086e-06 -7.96419e-09 1.91442e-07 -2.0712e-07 50.9608 -132.692 650.742 0.000125 573 0 
6915 2 2 -0.00885146 -0.00507647 0.000386962 0 0 0 0.000569097 -0.000127797 -0.0329679 0 0 -2.76087e-07 574.96 -449.302 -3050.29 0.000125 573 0 
6893 2 2 -0.00882475 -0.00535802 0.000815119 0 0 0 -0.0142626 0.0218203 -0.0171758 8.82213e-09 5.60113e-08 -1.80331e-07 -113.953 -184.632 -5.85802 0.000125 573 0 
6918 2 2 -0.00888668 -0.00463772 0.000125 0 0 0 0.00740233 0.00256286 -1.93243e-13 -9.75111e-19 -4.87555e-19 0 -20.5029 59.2187 -955.313 0.000125 573 0 
6927 2 2 -0.00932609 -0.00475048 0.000125 0 0 0 -0.000259987 0.0189989 -1.60912e-07 -9.25309e-09 5.43292e-08 -5.29625e-10 -869.945 -124.358 -2064.24 0.000125 573 0 
6922 2 2 -0.00885754 -0.00513237 0.000634707 0 0 0 0.000461144 0.0316908 -0.0336124 0 0 -2.76087e-07 154.57 737.463 549.774 0.000125 573 0 
6914 2 2 -0.00887041 -0.0048716 0.000577468 0 0 0 -0.0373521 0.0249981 -0.0332425 0 0 -2.76087e-07 18.5419 -672.49 -240.124 0.000125 573 0 
6923 2 2 -0.00849943 -0.00486221 0.000125 0 0 0 0.00210692 0.00130227 -1.80542e-13 1.90666e-19 2.43785e-19 0 -10.4181 16.8553 -38.8117 0.000125 573 0 
475 1 1 -0.00827844 -0.00531942 0.000489682 0 0 0 1.67985e-07 -7.34424e-07 -3.04271e-07 1.62876e-07 -3.28595e-07 -1.47091e-06 0.00085076 0.000523481 0.00035588 0.0005 573 0 
1560 1 1 -0.00724302 -0.00458455 0.000492608 0 0 0 5.62597e-08 -1.06304e-06 -2.89145e-07 -1.66293e-07 -1.70173e-07 4.75618e-08 0.000206557 -7.90477e-05 -0.00178971 0.0005 573 0 
332 1 1 -0.0060901 -0.00531315 0.000468268 0 0 0 1.01877e-06 -1.5894e-06 1.43391e-07 -1.63739e-07 -9.60092e-08 2.93923e-07 0.00043807 0.001644 -0.000508111 0.0005 573 0 
1556 1 1 -0.0055741 -0.00450546 0.000477159 0 0 0 1.18784e-06 -1.27632e-06 -6.20878e-08 2.62084e-10 -8.93498e-08 -9.98286e-08 0.0013254 0.000991302 -3.40598e-05 0.0005 573 0 
205 1 1 -0.00481265 -0.00537617 0.000469885 0 0 0 5.3246e-07 -2.0985e-06 1.95904e-07 1.3973e-07 2.26827e-07 2.14778e-07 0.00229964 -3.96142e-05 -0.00121197 0.0005 573 0 
242 1 1 -0.00299131 -0.00504343 0.00045669 0 0 0 2.42791e-06 -2.75496e-06 1.22984e-06 -8.5809e-07 6.45054e-07 -1.32597e-06 0.00345228 0.00251988 0.000700284 0.0005 573 0 
1153 1 1 -0.00148031 -0.00535832 0.000478959 0 0 0 1.46622e-06 -1.21371e-06 3.22429e-06 -2.17279e-05 3.76226e-05 1.34343e-05 -0.00348648 -0.00222161 -0.0081803 0.0005 573 0 
1529 1 1 -0.00063989 -0.00489861 0.000465496 0 0 0 2.54174e-06 -8.87023e-07 3.78154e-06 6.53739e-06 -1.21095e-06 -1.0967e-06 0.00167644 0.00276591 0.0112612 0.0005 573 0 
3782 1 1 0.00144669 -0.00476778 0.000586872 0 0 0 -5.16885e-06 -2.52739e-06 6.57539e-06 -2.25582e-05 4.90794e-06 4.54506e-06 -0.0208316 0.0119359 -0.00907934 0.0005 573 0 
5018 1 1 0.00225903 -0.00520798 0.000888169 0 0 0 -7.71408e-06 1.42103e-06 -2.99745e-07 -2.62928e-05 4.08129e-05 -0.000195242 0.0314218 0.0086335 0.00277716 0.0005 573 0 
4539 1 1 0.00316907 -0.00498235 0.000496954 0 0 0 -3.25277e-06 -8.78845e-06 2.29815e-05 -0.000170701 -8.77323e-05 -1.4815e-06 -0.0583259 -0.019749 -0.0180001 0.0005 573 0 
4744 1 1 0.00420362 -0.00457394 0.000468685 0 0 0 -1.2037e-05 -6.05359e-06 6.0835e-06 -0.00014123 -8.88681e-05 0.000106731 -0.0165588 -0.00760628 -0.0493593 0.0005 573 0 
4630 1 1 0.00542448 -0.00477771 0.000432024 0 0 0 -1.77958e-06 8.57626e-07 1.57394e-06 6.62377e-07 2.63559e-06 -1.22388e-05 -0.00187908 -0.00170234 -0.000468839 0.0005 573 0 
3813 1 1 0.00620793 -0.00534716 0.000488388 0 0 0 -2.3192e-06 4.36607e-07 1.39877e-06 5.68478e-07 2.43874e-06 1.42733e-06 -0.000247345 0.000384958 -0.00116324 0.0005 573 0 
3762 1 1 0.00718074 -0.00470197 0.000662559 0 0 0 -1.835e-06 6.01698e-07 4.17207e-07 -1.225e-06 -5.29506e-07 -1.73415e-06 -0.000505138 0.000502267 -0.000449912 0.0005 573 0 
4004 1 1 0.00812254 -0.00463797 0.000477918 0 0 0 -9.31853e-07 4.02036e-07 7.60109e-08 8.32783e-07 1.66125e-06 -1.34077e-06 -0.000646478 -0.000616758 -0.000207526 0.0005 573 0 
4061 1 1 0.00903751 -0.00498612 0.000465793 0 0 0 -6.87648e-07 3.37843e-07 2.32261e-07 2.26281e-06 1.42114e-06 4.69829e-07 -0.000373483 -0.000211698 -0.000222606 0.0005 573 0 
4579 1 1 0.0110778 -0.00537276 0.000492233 0 0 0 -1.02682e-07 1.50203e-08 8.66677e-07 2.35505e-06 -1.17176e-06 -2.6354e-06 0.000639481 -0.00242944 -0.000418462 0.0005 573 0 
5113 1 1 0.010511 -0.00459065 0.000446116 0 0 0 -4.11881e-07 1.8944e-07 1.92954e-07 9.40843e-07 -2.3522e-07 7.23967e-07 -0.00030944 -0.000719789 0.000198163 0.0005 573 0 
3901 1 1 0.0120168 -0.00536104 0.000773276 0 0 0 2.62063e-06 -1.49676e-06 -1.37863e-06 -3.25894e-05 1.87934e-05 1.97145e-05 0.0109731 0.00755398 0.00240184 0.0005 573 0 
10408 2 2 0.012375 -0.00485201 0.000717157 0 0 0 3.27889e-07 -1.47508e-07 -2.00975e-08 3.6514e-08 1.91306e-08 1.207e-07 0.0071965 0.000314961 0.00530179 0.000125 573 0 
10430 2 2 0.012363 -0.00470763 0.000922467 0 0 0 -0.00549442 -0.0111184 0.0100873 0 0 -2.76087e-07 1091.11 195.776 298.528 0.000125 573 0 
1198 1 1 -0.0120259 -0.00372181 0.000447429 0 0 0 -5.4217e-08 -1.06279e-07 -9.76517e-08 1.69627e-06 3.43205e-07 -2.44062e-06 8.77358e-05 0.000189056 2.52748e-06 0.0005 573 0 
6891 2 2 -0.0110849 -0.00408429 0.000125 0 0 0 -0.0155088 0.0359897 1.10229e-12 4.0943e-08 -3.7049e-08 0 405.494 642.221 -1938.54 0.000125 573 0 
895 1 1 -0.0112707 -0.00431645 0.000870783 0 0 0 -3.26366e-07 -1.13158e-06 -1.32759e-06 -3.60321e-06 -1.81017e-05 -1.99766e-05 -0.000933806 0.00757822 -0.00345366 0.0005 573 0 
6932 2 2 -0.0108009 -0.00410077 0.000125 0 0 0 -0.00651668 0.0022873 -9.93423e-13 -6.09194e-19 -6.30821e-20 0 -18.2984 -52.1334 -43.7737 0.000125 573 0 
1100 1 1 -0.0103778 -0.00442543 0.000474058 0 0 0 -9.21438e-06 -1.09776e-06 -9.36098e-06 -1.17367e-05 -5.88877e-05 -6.56126e-05 -0.00850007 0.00229018 0.0251573 0.0005 573 0 
1312 1 1 -0.00986189 -0.0037474 0.000955116 0 0 0 8.34542e-06 -2.11888e-05 -3.85447e-05 -0.000132996 0.000373769 0.000534068 0.0747884 0.137297 -0.0411866 0.0005 573 0 
6920 2 2 -0.01017 -0.00352845 0.000125 0 0 0 -0.00552223 -0.0153093 -3.34667e-05 -1.5433e-07 7.64222e-08 5.84988e-07 -1856.07 -4039.73 8733.24 0.000125 573 0 
6882 2 2 -0.00986951 -0.0043191 0.000125112 0 0 0 0.00928071 -0.0270116 -0.000807011 0 0 -2.76087e-07 8165.23 -4102.07 -2127.38 0.000125 573 0 
6916 2 2 -0.00964491 -0.00420776 0.00013323 0 0 0 -0.0171506 -0.0208677 0.00768118 -4.82248e-07 -2.23408e-07 -1.59372e-07 942.774 3629.74 464.939 0.000125 573 0 
6879 2 2 -0.00895589 -0.00437961 0.000125 0 0 0 -0.0025092 0.00224565 1.33091e-12 4.87555e-19 1.9647e-19 0 -17.9652 -20.0736 -26.1086 0.000125 573 0 
6899 2 2 -0.00942397 -0.00383408 0.000125 0 0 0 -0.0175302 -0.012677 7.15236e-05 1.34596e-07 -2.62378e-08 -1.12038e-06 216.317 690.115 1223.19 0.000125 573 0 
6876 2 2 -0.00919427 -0.00424495 0.000125 0 0 0 -0.017807 -0.00256737 -7.77501e-13 -1.35101e-18 4.87571e-19 0 20.5389 -142.456 476.055 0.000125 573 0 
6877 2 2 -0.00886042 -0.00359563 0.000518574 0 0 0 -1.35525e-07 -8.99949e-07 -1.27425e-06 -8.23912e-08 -2.59923e-08 -9.0605e-08 0.0194499 0.00145501 0.00284268 0.000125 573 0 
6885 2 2 -0.00893014 -0.0035616 0.000125 0 0 0 -0.00420306 -0.00151884 -6.55589e-07 4.10114e-07 3.43898e-07 -2.38031e-09 11.9691 -33.4498 -29.8024 0.000125 573 0 
6888 2 2 -0.00868055 -0.00357595 0.000125 0 0 0 -0.00382384 0.00478674 -8.60222e-06 4.94916e-07 -4.68034e-07 1.08136e-07 -37.9847 -30.2965 58.6175 0.000125 573 0 
6894 2 2 -0.00859993 -0.0037756 0.000252055 0 0 0 0.00911346 -0.00103078 -0.0173935 7.80241e-08 -1.22582e-07 -9.8431e-08 65.2503 73.6601 -14.8069 0.000125 573 0 
6900 2 2 -0.00875262 -0.0039274 0.000125 0 0 0 -0.00356463 -0.00282219 -2.37495e-05 6.12338e-07 5.82036e-07 7.60241e-07 22.3147 -28.2269 62.5555 0.000125 573 0 
6904 2 2 -0.00869803 -0.00378325 0.000549066 0 0 0 0.000857081 0.000574006 -0.00102711 7.30889e-08 5.30339e-08 -5.14001e-09 -35.1218 53.1923 0.493471 0.000125 573 0 
6912 2 2 -0.00891196 -0.00413349 0.000125 0 0 0 5.52678e-05 0.00181388 -1.32366e-12 -4.48799e-21 1.20618e-19 0 -14.511 0.442143 5.77219 0.000125 573 0 
6917 2 2 -0.00900993 -0.00385535 0.000125 0 0 0 -0.00119321 -0.00721981 -9.41486e-06 3.22186e-07 -6.00801e-08 -3.99247e-07 57.7551 -9.68899 11.1827 0.000125 573 0 
6919 2 2 -0.00921691 -0.00384399 0.000264746 0 0 0 -0.00907893 -0.00580971 -0.0119461 -6.29166e-07 7.23911e-08 4.03119e-07 175.11 -67.8662 -191.101 0.000125 573 0 
6925 2 2 -0.00885024 -0.00385416 0.000343187 0 0 0 -0.00290939 0.000839161 -0.000930436 8.79119e-09 -2.63237e-09 -2.89938e-07 -86.1522 57.2938 4.08121 0.000125 573 0 
6928 2 2 -0.00917031 -0.00363103 0.000125 0 0 0 -0.00438531 -0.000895774 -6.4185e-06 3.06002e-07 -2.713e-07 1.04877e-07 7.30951 -34.9259 -265.749 0.000125 573 0 
6929 2 2 -0.00941104 -0.0041198 0.000125 0 0 0 -0.0218186 -0.00941331 -0.00031779 -4.49681e-07 -5.91802e-07 5.79803e-06 106.369 -210.069 659.889 0.000125 573 0 
6901 2 2 -0.00926796 -0.00411122 0.000329845 0 0 0 -0.0142908 -0.0147575 -0.00750625 0 0 -2.76087e-07 142.994 -111.535 65.5877 0.000125 573 0 
6878 2 2 -0.00941571 -0.0043782 0.000125 0 0 0 -0.02 -0.0136767 6.19638e-13 1.37147e-08 5.34871e-08 0 99.4715 -157.451 -476.381 0.000125 573 0 
6903 2 2 -0.00857865 -0.00381476 0.00076645 0 0 0 0.00793241 0.00477067 -0.00430275 9.91455e-08 4.24827e-08 -8.48585e-08 214.446 -44.512 397.782 0.000125 573 0 
6906 2 2 -0.00835183 -0.00374945 0.000125 0 0 0 0.00823737 -0.00155452 -4.21866e-13 -1.27804e-18 2.43777e-19 0 12.4362 65.899 345.127 0.000125 573 0 
1298 1 1 -0.00842714 -0.00433994 0.000463374 0 0 0 1.74083e-06 -4.48373e-07 -3.42757e-07 4.04709e-06 -5.90351e-06 3.41223e-06 0.000779572 0.00266382 -0.00475343 0.0005 573 0 
595 1 1 -0.00741405 -0.0036303 0.000468622 0 0 0 4.89268e-07 -1.20772e-06 -8.48625e-09 -1.59108e-06 9.97064e-07 -2.06582e-06 0.00126144 0.000282302 0.00103566 0.0005 573 0 
682 1 1 -0.00640807 -0.00399414 0.000468013 0 0 0 6.35934e-07 -1.49282e-06 -2.23443e-07 -1.39806e-07 -2.56191e-08 -7.06762e-08 0.000899298 0.00014037 0.00138173 0.0005 573 0 
1164 1 1 -0.00549365 -0.00352231 0.000461364 0 0 0 9.67488e-07 -1.01531e-06 1.86038e-07 -3.21106e-09 -8.83109e-08 -3.54256e-08 0.00117817 0.00154625 -0.00135924 0.0005 573 0 
594 1 1 -0.00462133 -0.00442435 0.000483291 0 0 0 1.53267e-06 -2.30481e-06 9.79686e-07 2.58029e-09 -6.27826e-08 -9.87091e-08 0.00215843 -0.000539492 -0.00160321 0.0005 573 0 
1441 1 1 -0.00366718 -0.00436472 0.00046985 0 0 0 2.2853e-06 -2.86786e-06 1.76345e-06 -3.72194e-08 3.5376e-08 -8.3384e-08 0.00191469 0.00159608 -0.000312579 0.0005 573 0 
1623 1 1 -0.00240816 -0.00425572 0.000467215 0 0 0 1.91695e-06 -1.73968e-06 2.15773e-06 -6.12221e-07 6.58675e-07 2.92428e-07 -0.00110793 0.00273414 0.00141772 0.0005 573 0 
279 1 1 -0.00142781 -0.00432472 0.000479766 0 0 0 5.46318e-07 -1.52326e-06 1.42667e-06 2.02338e-07 -2.74326e-07 2.24798e-07 -0.00223904 -0.000235428 -0.00432305 0.0005 573 0 
1613 1 1 -0.000229612 -0.00403176 0.000560454 0 0 0 -1.7305e-06 -2.86154e-06 3.6006e-06 2.13215e-07 6.23586e-08 -6.65878e-08 -0.00748559 -0.00531235 -0.00548334 0.0005 573 0 
3802 1 1 0.000714344 -0.00413556 0.000467639 0 0 0 -1.35237e-06 -3.55285e-06 4.20043e-06 -1.15329e-06 -8.61058e-07 -2.20566e-06 0.00522275 0.00157915 0.00363005 0.0005 573 0 
4371 1 1 0.00160911 -0.00379622 0.000470886 0 0 0 -1.20443e-06 -2.18821e-06 2.69491e-06 1.53344e-07 2.61515e-06 4.54942e-07 0.00409097 -6.44672e-05 0.00144264 0.0005 573 0 
4346 1 1 0.00239187 -0.00436545 0.00045985 0 0 0 -1.24893e-06 -1.38306e-06 2.20903e-06 -9.45383e-06 3.01618e-05 1.29374e-05 -0.00129842 0.0004896 -0.00482181 0.0005 573 0 
4431 1 1 0.00318804 -0.00381182 0.00045328 0 0 0 -1.03374e-06 -8.69412e-07 2.40111e-06 -1.45238e-06 3.47405e-06 1.81413e-06 0.000273806 -0.00191619 0.00186714 0.0005 573 0 
4068 1 1 0.00494516 -0.0039172 0.000487911 0 0 0 -1.33306e-06 -9.17879e-07 1.48586e-06 9.04106e-06 -3.31832e-05 1.71607e-06 0.000558712 0.0022597 0.00643377 0.0005 573 0 
10897 2 2 0.0053587 -0.0036214 0.000851382 0 0 0 0.000474134 0.00308203 -0.00304752 1.95768e-07 -9.88047e-08 8.24015e-08 -78.427 -24.0634 -31.6612 0.000125 573 0 
4697 1 1 0.00584974 -0.00352025 0.000475689 0 0 0 -3.02224e-06 3.69111e-06 -3.49587e-06 3.26106e-05 -1.69937e-05 -2.91904e-06 -0.0120007 -0.00268705 0.00382311 0.0005 573 0 
3961 1 1 0.00631126 -0.00436694 0.000459603 0 0 0 -1.4221e-06 1.14802e-06 1.50297e-06 6.76746e-07 3.64651e-06 -7.00043e-06 0.00056534 -0.000358155 -0.00136318 0.0005 573 0 
3617 1 1 0.00716989 -0.00371822 0.000482581 0 0 0 -1.03746e-06 8.31799e-07 6.93411e-07 -1.12827e-05 4.01384e-07 -1.44273e-06 -0.0013705 -0.00210946 -0.000163299 0.0005 573 0 
10861 2 2 0.00669913 -0.00399877 0.000783072 0 0 0 -0.00921216 0.0122972 -0.00295016 -3.74489e-09 1.15258e-08 -3.07359e-09 -196.37 -148.353 -5.2525 0.000125 573 0 
10847 2 2 0.00660778 -0.0038147 0.000125 0 0 0 -0.00552946 -0.0162477 -1.08233e-12 -9.75091e-19 -3.90077e-18 0 129.982 -44.2357 226.041 0.000125 573 0 
4702 1 1 0.00861077 -0.00380101 0.000460176 0 0 0 -6.8795e-07 4.42085e-07 3.26846e-08 -1.56156e-06 6.75666e-08 3.58458e-07 -0.000795831 -0.00123397 7.44083e-05 0.0005 573 0 
4965 1 1 0.00953354 -0.00414854 0.000470588 0 0 0 -5.29354e-07 3.13204e-07 2.47598e-07 3.07228e-07 1.3993e-07 -4.47711e-07 -0.000388108 -0.000618885 -0.000303344 0.0005 573 0 
4565 1 1 0.0111461 -0.00384001 0.000490772 0 0 0 -2.2802e-07 1.3825e-07 7.54092e-08 -5.74777e-10 -2.48724e-07 -5.78099e-07 -0.000358872 0.000174211 -0.000537779 0.0005 573 0 
4329 1 1 0.0119923 -0.0044089 0.000498526 0 0 0 -5.55068e-08 -7.63682e-09 5.83002e-07 1.17722e-06 7.7875e-07 5.21734e-06 -0.00216617 -0.000216337 0.000392658 0.0005 573 0 
10425 2 2 0.012375 -0.00368079 0.000922457 0 0 0 5.83186e-06 -0.0448956 -0.0260989 -7.49967e-08 -1.50757e-08 -1.65673e-07 706.631 -161.789 334.107 0.000125 573 0 
377 1 1 -0.0120258 -0.00275973 0.000622033 0 0 0 -8.40191e-08 -3.00808e-07 -1.99444e-07 -2.50904e-07 9.97393e-07 1.9465e-07 -0.0003574 0.000295749 -0.000329241 0.0005 573 0 
6880 2 2 -0.0106383 -0.00333702 0.000125 0 0 0 -0.0030666 0.000772489 -2.72398e-15 4.83686e-19 -1.20889e-19 0 -6.17991 -24.5328 199.061 0.000125 573 0 
576 1 1 -0.0111194 -0.00340177 0.0005375 0 0 0 1.84783e-07 -3.89397e-07 7.43986e-07 4.87335e-06 -2.01797e-06 2.2664e-05 0.00256669 -0.00350816 -0.000471996 0.0005 573 0 
6902 2 2 -0.00978195 -0.00320225 0.000124988 0 0 0 1.08649e-06 -5.30948e-07 -1.69009e-06 5.51873e-08 1.86954e-07 -5.16583e-07 0.00444618 0.0482412 0.00918825 0.000125 573 0 
915 1 1 -0.0102501 -0.00299051 0.00048082 0 0 0 9.75641e-07 1.32385e-07 4.10951e-06 1.74108e-05 -2.74385e-05 -2.56088e-05 -0.0129135 0.00654632 0.002805 0.0005 573 0 
6924 2 2 -0.00878603 -0.00328945 0.000125 0 0 0 0.00263471 0.00542112 2.386e-13 -1.31931e-19 -9.75131e-19 0 -43.369 21.0777 -59.6269 0.000125 573 0 
1540 1 1 -0.00927437 -0.00312879 0.000482157 0 0 0 -3.29467e-06 -2.33717e-06 -6.44047e-06 -1.74537e-06 -3.58782e-05 -8.28493e-05 0.0275963 -0.0263387 0.001994 0.0005 573 0 
6884 2 2 -0.0087597 -0.00289459 0.00074841 0 0 0 1.40738e-07 -1.53941e-06 -6.11768e-08 -6.10512e-08 -1.81035e-08 2.70228e-08 -0.00378846 0.00139708 -0.00289851 0.000125 573 0 
6933 2 2 -0.00885646 -0.00345782 0.000810355 0 0 0 -0.00420513 -0.0404347 -0.0351828 -1.44886e-08 1.07753e-08 -2.92876e-07 2754.89 1917.96 -68.9562 0.000125 573 0 
768 1 1 -0.00831788 -0.00328635 0.0005436 0 0 0 -5.21151e-07 -1.14727e-06 1.34389e-06 -7.04858e-06 -7.43602e-06 1.44332e-06 -0.000202041 0.00603257 -0.00159547 0.0005 573 0 
1419 1 1 -0.00755875 -0.00264514 0.00049894 0 0 0 -4.33916e-07 -1.21521e-06 -6.71496e-07 -1.53346e-06 -1.42948e-07 -1.89108e-06 -0.00193999 -0.000525959 0.00188765 0.0005 573 0 
1376 1 1 -0.00664228 -0.0030532 0.000461185 0 0 0 8.34817e-07 -1.84604e-06 1.19007e-07 -2.69194e-07 5.44796e-08 -1.44523e-07 0.00231367 0.00179274 -0.00178576 0.0005 573 0 
982 1 1 -0.00452707 -0.00348543 0.000700054 0 0 0 1.90677e-06 -3.57871e-06 6.07826e-07 -7.2085e-08 -1.16349e-07 -1.24845e-07 -0.00233095 -0.00115567 0.00094589 0.0005 573 0 
1272 1 1 -0.00492393 -0.00261856 0.000473089 0 0 0 9.93463e-07 -2.75418e-06 1.69774e-07 -1.43413e-07 1.77681e-07 -5.63919e-08 0.00501581 0.000182395 -0.00237881 0.0005 573 0 
701 1 1 -0.00392714 -0.00275994 0.000468878 0 0 0 1.36156e-06 -2.69801e-06 9.13384e-07 -4.60717e-07 5.86789e-08 2.78066e-08 0.00251777 -0.000748565 -0.0002999 0.0005 573 0 
1612 1 1 -0.00324395 -0.00347904 0.000443911 0 0 0 1.57049e-06 -3.01104e-06 1.71693e-06 -2.18513e-08 -5.52051e-08 -8.7049e-08 0.00334298 0.000716625 -0.000361158 0.0005 573 0 
1372 1 1 -0.00251639 -0.0026237 0.000468131 0 0 0 7.66157e-07 -2.61102e-06 5.06137e-07 -1.35619e-07 -1.55762e-08 -8.14252e-08 0.00348323 0.000933536 0.00186683 0.0005 573 0 
1228 1 1 -0.00193637 -0.003395 0.000475455 0 0 0 1.04682e-06 -1.51322e-06 8.78487e-07 2.47762e-08 -1.39116e-09 -2.58293e-08 0.000299157 -0.00187587 -0.000526972 0.0005 573 0 