ITEM: TIMESTEP
3700000
ITEM: NUMBER OF ENTRIES
25550
ITEM: BOX BOUNDS mm pp mm
-0.0125 0.0125
-0.0075 0.0075
0 0.015
ITEM: ENTRIES c_fc[1] c_fc[2] c_fc[3] c_fc[4] c_fc[5] c_fc[6] c_fc[7] c_fc[8] c_fc[9] c_fc[10] c_fc[11] c_fc[12] c_fc[13] c_fc[14] 
-0.0105971 -0.00691458 0.000450732 -0.011171 0.0072844 0.0004651 1274 568 1 28.2796 40.3004 4.8453 2.2535e-08 0 
-0.0105971 -0.00691458 0.000450732 -0.0102098 -0.00600083 0.000485875 1274 947 0 -3.94366 -16.1823 1.27574 1.08737e-08 0 
-0.0105971 -0.00691458 0.000450732 -0.0110973 -0.00652666 0.00116336 1274 559 0 130.852 -145.558 -212.507 7.18424e-08 0 
-0.0105971 -0.00691458 0.000450732 -0.0102576 -0.007473 0.0011413 1274 951 0 -131.331 160.33 -231.238 7.54156e-08 0 
-0.00941753 -0.00692255 0.000460705 -0.00934736 0.00711994 0.000469562 1422 1295 1 1.44109 226.125 9.50625 6.13878e-08 0 
-0.00941753 -0.00692255 0.000460705 -0.00886352 -0.00612985 0.000481114 1422 1637 0 -80.3116 -147.623 -7.36867 5.04861e-08 0 
-0.00941753 -0.00692255 0.000460705 -0.00932375 -0.0073405 0.00136391 1422 1240 0 -0.0571456 0.0913236 -0.174142 5.80125e-10 0 
-0.00941753 -0.00692255 0.000460705 -0.00978573 -0.00649861 0.00122227 1422 95 0 110.07 -129.149 -313.678 8.22448e-08 0 
-0.00719629 -0.00695773 0.000470435 -0.00787692 -0.00623463 0.00046081 1497 1203 0 10.9848 -12.0277 -3.04469 1.08181e-08 0 
-0.00719629 -0.00695773 0.000470435 -0.00741533 -0.00717652 0.001384 1497 1077 0 20.6948 28.3194 -187.305 5.46315e-08 0 
-0.00719629 -0.00695773 0.000470435 -0.00688634 -0.00642403 0.00124885 1497 1585 0 -6.00281 -5.71659 -13.0782 1.03421e-08 0 
-0.0057882 -0.00671505 0.000839316 -0.00590603 0.00734057 0.000953406 597 179 1 31.6476 231.165 -61.7949 6.37966e-08 0 
-0.0057882 -0.00671505 0.000839316 -0.00506353 -0.00723228 0.000463698 597 598 0 -123.393 81.4665 99.7695 5.2018e-08 0 
-0.0057882 -0.00671505 0.000839316 -0.00646457 -0.00619294 0.000439266 597 440 0 270.482 -173.517 213.404 8.6302e-08 0 
-0.0057882 -0.00671505 0.000839316 -0.006071 -0.00662265 0.00176988 597 1520 0 30.0534 5.37996 -95.2577 3.57658e-08 0 
-0.0057882 -0.00671505 0.000839316 -0.00505402 -0.006641 0.00146398 597 913 0 -141.009 13.8512 -100.866 5.12878e-08 0 
-0.0057882 -0.00671505 0.000839316 -0.00546619 -0.0058199 0.00100607 597 1122 0 -67.7802 -158.347 -55.2556 5.27898e-08 0 
-0.00506353 -0.00723228 0.000463698 -0.0046301 -0.00634542 0.000497811 598 687 0 -15.8921 -35.2417 0.188092 1.92055e-08 0 
-0.00370349 -0.00669195 0.000561053 -0.00274775 -0.0069444 0.000469643 638 1033 0 -16.8343 3.7639 3.89631 1.13707e-08 0 
-0.00370349 -0.00669195 0.000561053 -0.0046301 -0.00634542 0.000497811 638 687 0 21.7341 -7.11428 2.50969 1.36067e-08 0 
-0.00370349 -0.00669195 0.000561053 -0.00298651 -0.00600491 0.000471692 638 1162 0 -3.86537 -2.59939 0.0728833 4.65655e-09 0 
-0.00370349 -0.00669195 0.000561053 -0.00345013 -0.007376 0.00123836 638 393 0 -1.0344 5.94977 -6.47886 7.17215e-09 0 
-0.00274775 -0.0069444 0.000469643 -0.00321432 0.00719168 0.000446803 1033 882 1 23.5572 64.1495 0.890715 2.78315e-08 0 
-0.00274775 -0.0069444 0.000469643 -0.00178699 -0.00713306 0.000470449 1033 565 0 -83.3098 19.1254 6.91979 3.24692e-08 0 
-0.00274775 -0.0069444 0.000469643 -0.00298651 -0.00600491 0.000471692 1033 1162 0 41.2605 -146.122 -7.64019 4.73992e-08 0 
-0.00274775 -0.0069444 0.000469643 -0.00245037 -0.007274 0.00132218 1033 1644 0 -27.1457 68.5883 -207.931 5.97792e-08 0 
-0.00178699 -0.00713306 0.000470449 -0.00200446 0.00698683 0.000830838 565 65 1 12.9236 103.796 -30.95 3.78834e-08 0 
-0.00178699 -0.00713306 0.000470449 -0.00111818 0.0071549 0.000462846 565 151 1 -62.2744 77.8209 -16.4869 3.58378e-08 0 
-0.00178699 -0.00713306 0.000470449 -0.00199744 -0.00617264 0.000446697 565 1698 0 13.4995 -58.2884 9.26585 2.57213e-08 0 
-0.00178699 -0.00713306 0.000470449 -0.00163099 -0.00678932 0.00135924 565 1115 0 -40.3798 -79.1424 -158.193 5.30602e-08 0 
-0.000621042 -0.00700801 0.000479869 -0.00111818 0.0071549 0.000462846 560 151 1 60.3334 104.451 -8.03853 4.07169e-08 0 
-0.000621042 -0.00700801 0.000479869 -0.00109344 -0.00621011 0.000805425 560 492 0 20.5673 -55.3574 -28.1069 2.68719e-08 0 
-0.000621042 -0.00700801 0.000479869 -0.000385468 0.00726898 0.00111057 560 507 1 -2.15904 30.4661 -22.9656 1.88283e-08 0 
-0.000621042 -0.00700801 0.000479869 3.83278e-05 -0.00659817 0.00107127 560 4722 0 -67.4552 -63.0608 -55.1907 3.73144e-08 0 
0.000413909 -0.00732796 0.000499999 -0.000137098 -0.00725779 0.000786516 4612 7049 0 0.000112031 -9.15347e-06 -8.90471e-05 4.27631e-13 0 
0.000413909 -0.00732796 0.000499999 3.83278e-05 -0.00659817 0.00107127 4612 4722 0 0.045632 0.0232673 0.000307405 4.54289e-13 0 
0.000413909 -0.00732796 0.000499999 0.000349407 -0.00713984 0.00109252 4612 7061 0 1.20944e-07 3.64322e-07 1.25131e-06 3.20325e-14 0 
0.00176267 -0.00671027 0.00051855 0.00270485 -0.00701309 0.000480399 4652 4687 0 -25.435 8.55497 -3.75392 1.50268e-08 0 
0.00176267 -0.00671027 0.00051855 0.00157086 -0.00575584 0.000463524 4652 3531 0 11.8559 -111.573 -1.672 3.86871e-08 0 
0.00176267 -0.00671027 0.00051855 0.00249253 -0.00605792 0.000485882 4652 5028 0 -66.3686 -50.0124 17.2666 3.1944e-08 0 
0.00176267 -0.00671027 0.00051855 0.00209587 -0.00743499 0.00111962 4652 4188 0 -0.62427 0.775515 -0.756942 1.93707e-09 0 
0.00176267 -0.00671027 0.00051855 0.0011512 -0.00642589 0.00123704 4652 4910 0 29.9263 -23.8008 -33.6823 2.27903e-08 0 
0.00270485 -0.00701309 0.000480399 0.00364077 -0.00726263 0.0005934 4687 4628 0 -101.026 39.4307 -30.6954 3.8494e-08 0 
0.00270485 -0.00701309 0.000480399 0.00249253 -0.00605792 0.000485882 4687 5028 0 23.8547 -85.9685 -17.4365 3.3406e-08 0 
0.00270485 -0.00701309 0.000480399 0.00209587 -0.00743499 0.00111962 4687 4188 0 44.656 43.2851 -65.4396 3.3409e-08 0 
0.00270485 -0.00701309 0.000480399 0.00323434 -0.0065899 0.00121562 4687 3540 0 8.117e-05 3.34157e-05 8.96332e-05 5.82702e-13 0 
0.00364077 -0.00726263 0.0005934 0.0042244 -0.00649724 0.000479491 4628 3628 0 -84.8441 -122.827 39.2736 4.75835e-08 0 
0.00466436 -0.00734533 0.00046066 0.00524338 0.00686012 0.000478464 4134 3907 1 -32.1231 52.3205 9.16756 2.60018e-08 0 
0.00466436 -0.00734533 0.00046066 0.00551379 -0.00703734 0.000825847 4134 4428 0 -102.595 -23.1402 -48.3341 3.94595e-08 0 
0.00466436 -0.00734533 0.00046066 0.0042244 -0.00649724 0.000479491 4134 3628 0 136.706 -227.305 -3.16325 6.81951e-08 0 
0.00466436 -0.00734533 0.00046066 0.00465927 0.00709841 0.00122904 4134 4128 1 0.329518 189.366 -269.922 7.86545e-08 0 
0.00551379 -0.00703734 0.000825847 0.00600881 -0.00629357 0.000445886 4428 5022 0 -49.7726 -124.051 51.6816 4.50807e-08 0 
0.00551379 -0.00703734 0.000825847 0.00484316 -0.00699872 0.00152352 4428 4828 0 122.819 -5.80089 -101.341 4.87174e-08 0 
0.00551379 -0.00703734 0.000825847 0.00622729 -0.00743827 0.00136721 4428 3821 0 -56.1821 29.5892 -35.4305 2.91331e-08 0 
0.00551379 -0.00703734 0.000825847 0.00588117 -0.00632978 0.00139342 4428 4107 0 -24.7156 -75.7959 -41.7319 3.31804e-08 0 
0.00667824 -0.00696231 0.000636448 0.00753571 -0.00656802 0.000811815 4215 3792 0 -216.977 -66.1772 -32.5451 6.16768e-08 0 
0.00667824 -0.00696231 0.000636448 0.00600881 -0.00629357 0.000445886 4215 5022 0 115.75 -135.276 48.2883 5.36815e-08 0 
0.00667824 -0.00696231 0.000636448 0.00622729 -0.00743827 0.00136721 4215 3821 0 22.326 42.7513 -51.8313 2.83504e-08 0 
0.00753571 -0.00656802 0.000811815 0.00839834 -0.00676841 0.000460914 3792 5036 0 -265.268 30.7025 123.441 7.27131e-08 0 
0.00753571 -0.00656802 0.000811815 0.00704818 -0.00582594 0.000457188 3792 5017 0 92.279 -214.836 125.371 6.7449e-08 0 
0.00753571 -0.00656802 0.000811815 0.00738224 -0.00735532 0.00133144 3792 4740 0 18.437 243.211 -111.117 6.80259e-08 0 
0.00753571 -0.00656802 0.000811815 0.00785235 -0.00618233 0.00163332 3792 3468 0 -62.4254 -125.255 -170.239 5.97756e-08 0 
0.00839834 -0.00676841 0.000460914 0.00890389 -0.00595766 0.000479646 5036 3622 0 -183.606 -196.878 -9.18634 6.81289e-08 0 
0.00839834 -0.00676841 0.000460914 0.00831109 0.00747069 0.00104068 5036 4200 1 -8.96303 192.298 -115.986 6.07089e-08 0 
0.00839834 -0.00676841 0.000460914 0.00866142 -0.00668232 0.00140335 5036 4451 0 -30.6257 -6.44788 -60.6121 2.76361e-08 0 
0.00913061 -0.00745053 0.000486495 0.00947789 -0.00662657 0.000896605 4111 4352 0 -20.6389 -46.5792 -29.8685 2.53572e-08 0 
0.00913061 -0.00745053 0.000486495 0.00911233 0.00682431 0.00115732 4111 3807 1 3.24938 30.2162 -21.901 1.87065e-08 0 
0.00947789 -0.00662657 0.000896605 0.0103001 -0.00662339 0.0004474 4352 4513 0 -351.543 16.8851 291.021 9.5915e-08 0 
0.00947789 -0.00662657 0.000896605 0.00890389 -0.00595766 0.000479646 4352 3622 0 70.6178 -62.9851 62.1089 3.86617e-08 0 
0.00947789 -0.00662657 0.000896605 0.00866142 -0.00668232 0.00140335 4352 4451 0 195.264 6.51493 -74.0541 5.77097e-08 0 
0.00947789 -0.00662657 0.000896605 0.00954824 -0.00687349 0.00181707 4352 3702 0 2.71239 95.632 -249.381 6.81933e-08 0 
0.00947789 -0.00662657 0.000896605 0.00918383 -0.00585799 0.00141415 4352 4359 0 62.3096 -102.626 -59.5632 4.31768e-08 0 
0.0103001 -0.00662339 0.0004474 0.0112146 -0.006333 0.000465599 4513 3913 0 -221.816 -60.0428 -8.51462 6.21656e-08 0 
0.0103001 -0.00662339 0.0004474 0.0104122 -0.00681413 0.00138707 4513 3478 0 -28.145 4.33157 -183.193 5.34716e-08 0 
0.0111894 -0.00737241 0.000477847 0.0120055 0.00705057 0.00047493 4897 4824 1 -0.287842 0.184229 -0.0436936 8.25858e-10 0 
0.0111894 -0.00737241 0.000477847 0.0120279 -0.00686079 0.00049094 4897 4640 0 -52.4624 -42.1701 4.41689 2.75709e-08 0 
0.0111894 -0.00737241 0.000477847 0.0113719 -0.00684488 0.00126977 4897 4242 0 -35.6507 -59.7634 -142.002 4.8118e-08 0 
0.0120279 -0.00686079 0.00049094 0.0112146 -0.006333 0.000465599 4640 3913 0 131.786 -69.3023 -11.016 4.6604e-08 0 
-0.0120157 -0.00565136 0.00096258 -0.0111917 -0.00584489 0.000475036 414 270 0 -83.8923 37.7274 43.1838 3.59738e-08 0 
-0.0120157 -0.00565136 0.00096258 -0.0120215 -0.00479243 0.000480382 414 668 0 2.81712 -48.1283 19.9764 2.33191e-08 0 
-0.0120157 -0.00565136 0.00096258 -0.0120285 -0.00654308 0.00141244 414 709 0 0.0880155 1.04319 -0.390394 1.81053e-09 0 
-0.0120157 -0.00565136 0.00096258 -0.0120139 -0.00552492 0.00193859 414 826 0 2.11461 -3.34478 -56.3961 2.46679e-08 0 
-0.0111917 -0.00584489 0.000475036 -0.0102098 -0.00600083 0.000485875 270 947 0 -11.9791 2.99048 1.82577 8.97772e-09 0 
-0.0111917 -0.00584489 0.000475036 -0.0106007 -0.00523732 0.000979519 270 1268 0 -26.5397 -26.6977 -25.1151 2.13154e-08 0 
-0.0111917 -0.00584489 0.000475036 -0.0110973 -0.00652666 0.00116336 270 559 0 -34.6973 78.2294 -91.3712 4.12294e-08 0 
-0.0102098 -0.00600083 0.000485875 -0.0106007 -0.00523732 0.000979519 947 1268 0 6.7585 -23.3578 -17.9157 1.61126e-08 0 
-0.0102098 -0.00600083 0.000485875 -0.00978573 -0.00649861 0.00122227 947 95 0 -20.7359 18.7369 -46.1631 2.36621e-08 0 
-0.00886352 -0.00612985 0.000481114 -0.00871256 -0.00562594 0.000818632 1637 6926 0 -6.79944e-08 -1.43192e-07 -1.04957e-07 3.04341e-14 0 
-0.00886352 -0.00612985 0.000481114 -0.00885276 -0.00552272 0.000629141 1637 6930 0 2.799e-08 -4.50512e-07 5.09442e-07 5.7747e-14 0 
-0.00886352 -0.00612985 0.000481114 -0.00787692 -0.00623463 0.00046081 1637 1203 0 -18.5005 4.54216 3.15961 1.19724e-08 0 
-0.00886352 -0.00612985 0.000481114 -0.00942277 -0.00533288 0.000456859 1637 1459 0 51.2939 -109.979 -7.95426 4.04491e-08 0 
-0.00886352 -0.00612985 0.000481114 -0.00827844 -0.00531942 0.000489682 1637 475 0 -0.171695 -0.164941 0.0103341 6.42469e-10 0 
-0.00886352 -0.00612985 0.000481114 -0.00831579 -0.00593672 0.00125821 1637 1392 0 -92.7678 -42.0026 -106.445 4.62027e-08 0 
-0.00871256 -0.00562594 0.000818632 -0.00827844 -0.00531942 0.000489682 6926 475 0 -1.01057e-07 -1.14903e-07 1.16875e-07 3.01792e-14 0 
-0.00885276 -0.00552272 0.000629141 -0.00942277 -0.00533288 0.000456859 6930 1459 0 5.45414e-07 -3.35346e-07 4.2651e-07 6.60894e-14 0 
-0.00885276 -0.00552272 0.000629141 -0.00882475 -0.00535802 0.000815119 6930 6893 0 1.83221e-05 8.53946e-05 -7.85336e-05 1.44455e-14 0 
-0.00885276 -0.00552272 0.000629141 -0.00827844 -0.00531942 0.000489682 6930 475 0 -5.24213e-07 -2.55759e-07 6.75154e-07 6.19503e-14 0 
-0.00787692 -0.00623463 0.00046081 -0.00718326 -0.00555147 0.000546803 1203 208 0 -78.1063 -56.4543 -15.7623 3.5133e-08 0 
-0.00787692 -0.00623463 0.00046081 -0.00827844 -0.00531942 0.000489682 1203 475 0 0.0220878 -0.0567629 -0.00996907 2.62444e-10 0 
-0.00787692 -0.00623463 0.00046081 -0.00827713 -0.00687676 0.00107979 1203 748 0 22.1352 65.466 -67.9183 3.48412e-08 0 
-0.00787692 -0.00623463 0.00046081 -0.00831579 -0.00593672 0.00125821 1203 1392 0 91.112 -50.4523 -226.657 6.50374e-08 0 
-0.00718326 -0.00555147 0.000546803 -0.00646457 -0.00619294 0.000439266 208 440 0 -118.054 91.7713 34.8229 4.74662e-08 0 
-0.00718326 -0.00555147 0.000546803 -0.00724302 -0.00458455 0.000492608 208 1560 0 16.669 -143.565 16.1618 4.5994e-08 0 
-0.00718326 -0.00555147 0.000546803 -0.00739543 -0.00564269 0.00150105 208 1278 0 23.2789 -4.6607 -66.747 2.8327e-08 0 
-0.00646457 -0.00619294 0.000439266 -0.0060901 -0.00531315 0.000468268 440 332 0 -133.962 -219.992 -32.0703 6.6676e-08 0 
-0.00646457 -0.00619294 0.000439266 -0.00688634 -0.00642403 0.00124885 440 1585 0 212.409 120.76 -318.665 8.89686e-08 0 
-0.0046301 -0.00634542 0.000497811 -0.00481265 -0.00537617 0.000469885 687 205 0 5.93634 -43.1312 -1.40089 2.07607e-08 0 
-0.00388393 -0.00566224 0.000459541 -0.00298651 -0.00600491 0.000471692 1481 1162 0 -203.484 84.3326 -27.7237 6.05295e-08 0 
-0.00388393 -0.00566224 0.000459541 -0.00481265 -0.00537617 0.000469885 1481 205 0 132.564 -24.2728 9.9168 4.36122e-08 0 
-0.00388393 -0.00566224 0.000459541 -0.00377014 -0.00600052 0.00135566 1481 188 0 0.695588 39.5662 -188.176 5.46496e-08 0 
-0.00388393 -0.00566224 0.000459541 -0.00416241 -0.00502489 0.00113615 1481 775 0 27.9239 -80.7468 -119.685 4.58917e-08 0 
-0.00298651 -0.00600491 0.000471692 -0.00299131 -0.00504343 0.00045669 1162 242 0 7.03504 -213.099 -14.3095 5.91523e-08 0 
-0.00298651 -0.00600491 0.000471692 -0.00249121 -0.00631668 0.00122322 1162 1137 0 -170.499 113.116 -211.581 7.27884e-08 0 
-0.00199744 -0.00617264 0.000446697 -0.00109344 -0.00621011 0.000805425 1698 492 0 -108.401 11.1871 -60.7741 4.13938e-08 0 
-0.00199744 -0.00617264 0.000446697 -0.00148031 -0.00535832 0.000478959 1698 1153 0 -104.155 -152.239 13.7814 5.37298e-08 0 
-0.00199744 -0.00617264 0.000446697 -0.00249121 -0.00631668 0.00122322 1698 1137 0 245.005 94.6441 -436.207 1.0403e-07 0 
-0.00109344 -0.00621011 0.000805425 -0.000275662 -0.00582283 0.000469601 492 518 0 -141.528 -75.6397 97.049 5.37776e-08 0 
-0.00109344 -0.00621011 0.000805425 -0.00148031 -0.00535832 0.000478959 492 1153 0 5.9735 -21.7588 11.1698 1.42882e-08 0 
-0.00109344 -0.00621011 0.000805425 -0.00163099 -0.00678932 0.00135924 492 1115 0 113.989 130.027 -76.8102 5.40821e-08 0 
-0.00109344 -0.00621011 0.000805425 -0.00170857 -0.00582177 0.00147849 492 1056 0 12.7494 -13.5948 -15.6764 1.39677e-08 0 
-0.00109344 -0.00621011 0.000805425 -0.000541001 -0.00591523 0.00154673 492 1533 0 -79.018 -63.2042 -104.613 4.58082e-08 0 
-0.000275662 -0.00582283 0.000469601 0.000640639 -0.00618417 0.000449759 518 4354 0 -51.2549 9.23434 1.17048 2.3116e-08 0 
-0.000275662 -0.00582283 0.000469601 -0.00063989 -0.00489861 0.000465496 518 1529 0 4.44404 -14.5303 1.67286 1.03251e-08 0 
-0.000275662 -0.00582283 0.000469601 -4.1573e-05 -0.00517625 0.0011534 518 3974 0 -53.3051 -79.2303 -117.889 4.67864e-08 0 
0.000640639 -0.00618417 0.000449759 3.83278e-05 -0.00659817 0.00107127 4354 4722 0 146.289 95.8685 -151.678 6.24768e-08 0 
0.000640639 -0.00618417 0.000449759 0.0011512 -0.00642589 0.00123704 4354 4910 0 -105.36 42.3206 -109.018 4.79812e-08 0 
0.000640639 -0.00618417 0.000449759 0.000860562 -0.00543915 0.00100652 4354 4345 0 -67.2343 -177.305 -188.777 6.80149e-08 0 
0.00157086 -0.00575584 0.000463524 0.00249253 -0.00605792 0.000485882 3531 5028 0 -145.549 23.2941 -10.3081 4.61536e-08 0 
0.00157086 -0.00575584 0.000463524 0.00225903 -0.00520798 0.000888169 3531 5018 0 -67.9997 -46.4128 -60.5485 3.60846e-08 0 
0.00157086 -0.00575584 0.000463524 0.000860562 -0.00543915 0.00100652 3531 4345 0 230.992 -112.983 -209.598 7.88107e-08 0 
0.00249253 -0.00605792 0.000485882 0.00344264 -0.00593373 0.000490325 5028 4810 0 -244.412 4.63594 -7.93432 6.428e-08 0 
0.00249253 -0.00605792 0.000485882 0.00225903 -0.00520798 0.000888169 5028 5018 0 52.6796 -129.559 -69.6725 4.8109e-08 0 
0.00344264 -0.00593373 0.000490325 0.0042244 -0.00649724 0.000479491 4810 3628 0 -163.294 107.294 10.7611 5.59128e-08 0 
0.00344264 -0.00593373 0.000490325 0.00433633 -0.00554042 0.000476516 4810 3994 0 -85.3401 -59.1407 -1.02924 3.64731e-08 0 
0.00344264 -0.00593373 0.000490325 0.00316907 -0.00498235 0.000496954 4810 4539 0 11.6059 -26.3141 -3.30684 1.57106e-08 0 
0.00344264 -0.00593373 0.000490325 0.00323434 -0.0065899 0.00121562 4810 3540 0 -0.23168 -0.106393 -0.162801 8.81094e-13 0 
0.00344264 -0.00593373 0.000490325 0.0037624 -0.0056831 0.00138649 4810 5031 0 -13.3331 -21.3494 -52.4379 2.50072e-08 0 
0.0042244 -0.00649724 0.000479491 0.00433633 -0.00554042 0.000476516 3628 3994 0 -58.7905 -193.031 -15.7342 5.65085e-08 0 
0.0042244 -0.00649724 0.000479491 0.00463249 -0.00608589 0.00127082 3628 3927 0 -32.2986 -41.9263 -54.9257 2.98849e-08 0 
0.00433633 -0.00554042 0.000476516 0.00528083 -0.00571654 0.000656578 3994 5099 0 -88.5005 18.7806 -35.4293 3.49263e-08 0 
0.00433633 -0.00554042 0.000476516 0.00420362 -0.00457394 0.000468685 3994 4744 0 7.01721 -108.136 -7.1097 3.79003e-08 0 
0.00433633 -0.00554042 0.000476516 0.00481124 -0.00498103 0.00109875 3994 4956 0 -86.2512 -154.399 -118.24 5.84117e-08 0 
0.00528083 -0.00571654 0.000656578 0.00600881 -0.00629357 0.000445886 5099 5022 0 -222.099 160.096 117.304 7.27981e-08 0 
0.00528083 -0.00571654 0.000656578 0.00542448 -0.00477771 0.000432024 5099 4630 0 -19.5453 -96.4152 43.2031 3.73301e-08 0 
0.00528083 -0.00571654 0.000656578 0.00463249 -0.00608589 0.00127082 5099 3927 0 131.54 63.9457 -95.992 5.17769e-08 0 
0.00528083 -0.00571654 0.000656578 0.00481124 -0.00498103 0.00109875 5099 4956 0 42.4943 -71.9882 -35.6982 3.37668e-08 0 
0.00528083 -0.00571654 0.000656578 0.00559814 -0.00538238 0.00152224 5099 4294 0 -20.8904 -36.8579 -64.2465 3.00657e-08 0 
0.00600881 -0.00629357 0.000445886 0.00620793 -0.00534716 0.000488388 5022 3813 0 -56.9272 -151.935 -27.7502 4.93582e-08 0 
0.00600881 -0.00629357 0.000445886 0.00588117 -0.00632978 0.00139342 5022 4107 0 -15.2657 1.72911 -258.726 6.64237e-08 0 
0.00704818 -0.00582594 0.000457188 0.0079852 -0.00561284 0.00047318 5017 5015 0 -203.905 -81.6761 -22.2853 5.99484e-08 0 
0.00704818 -0.00582594 0.000457188 0.00620793 -0.00534716 0.000488388 5017 3813 0 149.03 -70.4433 -25.3764 5.00827e-08 0 
0.00704818 -0.00582594 0.000457188 0.00665788 -0.00577577 0.00133527 5017 3919 0 99.3478 -35.7887 -181.453 5.82161e-08 0 
0.0079852 -0.00561284 0.00047318 0.00890389 -0.00595766 0.000479646 5015 3622 0 -63.14 37.9573 1.18156 2.91212e-08 0 
0.0079852 -0.00561284 0.00047318 0.00812254 -0.00463797 0.000477918 5015 4004 0 -0.0237744 -55.083 5.1777 2.41345e-08 0 
0.0079852 -0.00561284 0.00047318 0.00751065 -0.00534622 0.00130021 5015 4189 0 13.0001 -11.6758 -22.2283 1.54995e-08 0 
0.0079852 -0.00561284 0.00047318 0.00846589 -0.00521561 0.00120069 5015 3690 0 -148.653 -69.9038 -182.187 6.42968e-08 0 
0.00890389 -0.00595766 0.000479646 0.00979588 -0.00559714 0.000446263 3622 4737 0 -175.89 -108.825 10.3388 5.75433e-08 0 
0.00890389 -0.00595766 0.000479646 0.00903751 -0.00498612 0.000465793 3622 4061 0 4.38631 -76.7111 1.6518 2.99045e-08 0 
0.00890389 -0.00595766 0.000479646 0.00918383 -0.00585799 0.00141415 3622 4359 0 -14.3962 -16.4599 -74.0884 3.01589e-08 0 
0.00979588 -0.00559714 0.000446263 0.00903751 -0.00498612 0.000465793 4737 4061 0 78.0614 -91.1223 -6.87569 4.01846e-08 0 
0.00979588 -0.00559714 0.000446263 0.0101684 -0.00586243 0.0012749 4737 3707 0 -171.121 110.912 -288.119 8.18701e-08 0 
0.00979588 -0.00559714 0.000446263 0.00980333 -0.00487296 0.00107034 4737 4996 0 -24.3898 -177.914 -193.163 6.75762e-08 0 
0.0112146 -0.006333 0.000465599 0.0110778 -0.00537276 0.000492233 3913 4579 0 12.4177 -144.323 -10.651 4.59676e-08 0 
0.0112146 -0.006333 0.000465599 0.0113719 -0.00684488 0.00126977 3913 4242 0 -47.1532 69.0338 -158.423 5.22499e-08 0 
0.0112146 -0.006333 0.000465599 0.0111366 -0.0058942 0.00133229 3913 5139 0 -12.2681 -48.2276 -105.783 3.94503e-08 0 
-0.0120215 -0.00479243 0.000480382 -0.0112707 -0.00431645 0.000870783 668 895 0 -106.911 -62.9884 -66.5063 4.50089e-08 0 
-0.0106007 -0.00523732 0.000979519 -0.0103778 -0.00442543 0.000474058 1268 1100 0 -14.0387 -55.8427 36.6521 2.7989e-08 0 
-0.0106007 -0.00523732 0.000979519 -0.0104723 -0.00596592 0.00163534 1268 1362 0 -9.00727 26.6113 -20.1077 1.76944e-08 0 
-0.0106007 -0.00523732 0.000979519 -0.0112018 -0.00497227 0.00171888 1268 1524 0 22.7996 -12.069 -20.5358 1.71127e-08 0 
-0.0106007 -0.00523732 0.000979519 -0.0101217 -0.00509102 0.00182938 1268 1515 0 -19.5349 -8.755 -39.0395 2.10729e-08 0 
-0.00942277 -0.00533288 0.000456859 -0.00904674 -0.00515101 0.00092178 1459 6931 0 -8.29875e-08 -3.00418e-08 -1.45855e-07 2.79284e-14 0 
-0.00942277 -0.00533288 0.000456859 -0.00926652 -0.00569652 0.00134695 1459 1013 0 -31.9367 43.6044 -105.564 4.01372e-08 0 
-0.00942277 -0.00533288 0.000456859 -0.00966639 -0.00468094 0.00109935 1459 783 0 100.569 -204.164 -260.973 8.07642e-08 0 
-0.00869923 -0.00488597 0.000325254 -0.00884849 -0.00489694 0.000125 6939 6911 0 1.09943e-07 4.38188e-08 1.97153e-07 1.55104e-14 0 
-0.00892856 -0.00513377 0.000125 -0.00884849 -0.00489694 0.000125 6887 6911 0 -5.79979e-08 -2.27757e-07 -4.32703e-08 8.10561e-15 0 
-0.00827844 -0.00531942 0.000489682 -0.00842714 -0.00433994 0.000463374 475 1298 0 2.55606 -23.9686 -4.01258 1.39983e-08 0 
-0.00827844 -0.00531942 0.000489682 -0.00831579 -0.00593672 0.00125821 475 1392 0 -0.333576 24.0912 -37.9292 2.11343e-08 0 
-0.00724302 -0.00458455 0.000492608 -0.00741405 -0.0036303 0.000468622 1560 595 0 18.6539 -148.151 -9.26904 4.67913e-08 0 
-0.0060901 -0.00531315 0.000468268 -0.0055741 -0.00450546 0.000477159 332 1556 0 -139.258 -194.778 -27.9027 6.38593e-08 0 
-0.0060901 -0.00531315 0.000468268 -0.00546619 -0.0058199 0.00100607 332 1122 0 -130.742 62.8076 -92.739 5.08227e-08 0 
-0.0060901 -0.00531315 0.000468268 -0.00645305 -0.00470583 0.00111988 332 805 0 106.701 -122.377 -137.632 5.87684e-08 0 
-0.0055741 -0.00450546 0.000477159 -0.00640807 -0.00399414 0.000468013 1556 682 0 84.4345 -35.6966 -3.89576 3.37526e-08 0 
-0.0055741 -0.00450546 0.000477159 -0.00549365 -0.00352231 0.000461364 1556 1164 0 -9.04522 -43.4002 4.87986 2.09623e-08 0 
-0.0055741 -0.00450546 0.000477159 -0.00462133 -0.00442435 0.000483291 1556 594 0 -258.03 -23.3924 11.8775 6.72294e-08 0 
-0.0055741 -0.00450546 0.000477159 -0.00572325 -0.00405592 0.00131436 1556 1620 0 40.2816 -103.899 -178.907 5.87222e-08 0 
-0.00481265 -0.00537617 0.000469885 -0.00462133 -0.00442435 0.000483291 205 594 0 -22.3458 -138.293 -8.57191 4.49657e-08 0 
-0.00481265 -0.00537617 0.000469885 -0.00546619 -0.0058199 0.00100607 205 1122 0 180.793 96.562 -185.041 6.95014e-08 0 
-0.00481265 -0.00537617 0.000469885 -0.00416241 -0.00502489 0.00113615 205 775 0 -6.97284 -1.71537 -7.00406 7.75479e-09 0 
-0.00299131 -0.00504343 0.00045669 -0.00366718 -0.00436472 0.00046985 242 1441 0 160.51 -183.867 -48.7917 6.46973e-08 0 
-0.00299131 -0.00504343 0.00045669 -0.00240816 -0.00425572 0.000467215 242 1623 0 -57.0858 -56.4128 7.74529 3.08921e-08 0 
-0.00299131 -0.00504343 0.00045669 -0.00295907 -0.00545372 0.00132173 242 661 0 -49.7408 98.9405 -221.437 6.46656e-08 0 
-0.00299131 -0.00504343 0.00045669 -0.00306804 -0.00447038 0.00123514 242 993 0 20.7768 -97.2943 -112.517 4.69209e-08 0 
-0.00148031 -0.00535832 0.000478959 -0.00063989 -0.00489861 0.000465496 1153 1529 0 -213.379 -117.239 -8.98733 6.45454e-08 0 
-0.00148031 -0.00535832 0.000478959 -0.00215388 -0.00497099 0.00105938 1153 816 0 108.933 -49.3075 -88.1959 4.66439e-08 0 
-0.00063989 -0.00489861 0.000465496 -0.00142781 -0.00432472 0.000479766 1529 279 0 80.6384 -80.925 3.98374 3.89849e-08 0 
-0.00063989 -0.00489861 0.000465496 -0.000229612 -0.00403176 0.000560454 1529 1613 0 -70.7567 -178.268 -50.247 5.59324e-08 0 
-0.00063989 -0.00489861 0.000465496 -4.1573e-05 -0.00517625 0.0011534 1529 3974 0 -213.177 90.8068 -176.947 7.20411e-08 0 
-0.00063989 -0.00489861 0.000465496 -0.000649598 -0.00442113 0.00132922 1529 1603 0 3.56467 -13.5431 -40.5808 2.03384e-08 0 
0.00144669 -0.00476778 0.000586872 0.00225903 -0.00520798 0.000888169 3782 5018 0 -121.032 60.2578 -17.2851 4.36337e-08 0 
0.00144669 -0.00476778 0.000586872 0.000714344 -0.00413556 0.000467639 3782 3802 0 84.3778 -69.8541 36.1535 3.90672e-08 0 
0.00144669 -0.00476778 0.000586872 0.00160911 -0.00379622 0.000470886 3782 4371 0 -1.9894 -21.0212 -0.829285 1.275e-08 0 
0.00144669 -0.00476778 0.000586872 0.000860562 -0.00543915 0.00100652 3782 4345 0 38.6438 30.6176 -18.0391 2.32543e-08 0 
0.00225903 -0.00520798 0.000888169 0.00239187 -0.00436545 0.00045985 5018 4346 0 -26.7853 -232.737 146.956 6.99268e-08 0 
0.00225903 -0.00520798 0.000888169 0.00193824 -0.00590122 0.00148103 5018 4769 0 82.5187 109.983 -104.213 5.10781e-08 0 
0.00225903 -0.00520798 0.000888169 0.00293014 -0.00523278 0.0015671 5018 5030 0 -192.086 7.04012 -190.249 6.91477e-08 0 
0.00316907 -0.00498235 0.000496954 0.00239187 -0.00436545 0.00045985 4539 4346 0 11.077 -12.8262 0.904802 1.10011e-08 0 
0.00316907 -0.00498235 0.000496954 0.00305184 -0.00434386 0.00124821 4539 4637 0 1.34142 -13.3402 -10.94 1.11506e-08 0 
0.00420362 -0.00457394 0.000468685 0.00494516 -0.0039172 0.000487911 4744 4068 0 -21.0596 -14.2211 -0.299652 1.44709e-08 0 
0.00420362 -0.00457394 0.000468685 0.00481124 -0.00498103 0.00109875 4744 4956 0 -109.539 107.942 -104.168 5.34742e-08 0 
0.00420362 -0.00457394 0.000468685 0.00395872 -0.00382994 0.00101602 4744 3548 0 112.581 -211.961 -124.402 6.82641e-08 0 
0.00542448 -0.00477771 0.000432024 0.00620793 -0.00534716 0.000488388 4630 3813 0 -117.494 82.931 -37.3066 4.61454e-08 0 
0.00542448 -0.00477771 0.000432024 0.00494516 -0.0039172 0.000487911 4630 4068 0 13.8058 -42.4986 -3.28967 2.09294e-08 0 
0.00542448 -0.00477771 0.000432024 0.00631126 -0.00436694 0.000459603 4630 3961 0 -85.9504 -39.1953 3.36676 3.46627e-08 0 
0.00542448 -0.00477771 0.000432024 0.00481124 -0.00498103 0.00109875 4630 4956 0 295.935 114.446 -447.846 1.08446e-07 0 
0.00542448 -0.00477771 0.000432024 0.00565666 -0.00420769 0.00116646 4630 4746 0 -57.9654 -149.166 -180.946 6.42245e-08 0 
0.00620793 -0.00534716 0.000488388 0.00631126 -0.00436694 0.000459603 3813 3961 0 3.84593 -47.2199 -0.312323 2.17305e-08 0 
0.00620793 -0.00534716 0.000488388 0.0064009 -0.00484831 0.00129322 3813 3745 0 -36.1977 -98.1166 -140.191 5.1962e-08 0 
0.00718074 -0.00470197 0.000662559 0.00812254 -0.00463797 0.000477918 3762 4004 0 -200.472 -8.71327 72.2745 5.87635e-08 0 
0.00718074 -0.00470197 0.000662559 0.00631126 -0.00436694 0.000459603 3762 3961 0 258.259 -72.4773 100.956 7.11276e-08 0 
0.00718074 -0.00470197 0.000662559 0.00751065 -0.00534622 0.00130021 3762 4189 0 -54.0888 151.405 -103.962 5.45979e-08 0 
0.00718074 -0.00470197 0.000662559 0.00716066 -0.00406158 0.00140023 3762 4341 0 -3.69782 -70.2145 -69.2684 3.56028e-08 0 
0.00812254 -0.00463797 0.000477918 0.00903751 -0.00498612 0.000465793 4004 4061 0 -82.2953 25.0627 1.86774 3.25736e-08 0 
0.00812254 -0.00463797 0.000477918 0.00861077 -0.00380101 0.000460176 4004 4702 0 -85.0264 -128.795 -24.4295 4.77716e-08 0 
0.00812254 -0.00463797 0.000477918 0.00846589 -0.00521561 0.00120069 4004 3690 0 -14.1996 24.9212 -31.3011 2.04503e-08 0 
0.00903751 -0.00498612 0.000465793 0.00953354 -0.00414854 0.000470588 4061 4965 0 -53.3439 -110.597 -13.1221 4.11494e-08 0 
0.00903751 -0.00498612 0.000465793 0.00846589 -0.00521561 0.00120069 4061 3690 0 127.021 17.9403 -203.227 6.32316e-08 0 
0.00903751 -0.00498612 0.000465793 0.00980333 -0.00487296 0.00107034 4061 4996 0 -51.2827 -20.4927 -40.182 2.76779e-08 0 
0.0110778 -0.00537276 0.000492233 0.010511 -0.00459065 0.000446116 4579 5113 0 92.6265 -142.184 12.4757 5.10314e-08 0 
0.0110778 -0.00537276 0.000492233 0.0120168 -0.00536104 0.000773276 4579 3901 0 -75.4332 -15.2413 -22.5893 3.08151e-08 0 
0.0110778 -0.00537276 0.000492233 0.0111366 -0.0058942 0.00133229 4579 5139 0 -6.24842 15.0997 -21.1537 1.48744e-08 0 
0.0110778 -0.00537276 0.000492233 0.0107229 -0.00503301 0.00135826 4579 3496 0 3.32979 -2.74592 -6.77491 6.7611e-09 0 
0.010511 -0.00459065 0.000446116 0.0111461 -0.00384001 0.000490772 5113 4565 0 -43.9968 -36.0626 -2.95353 2.45723e-08 0 
0.010511 -0.00459065 0.000446116 0.00980333 -0.00487296 0.00107034 5113 4996 0 42.8213 10.8295 -28.6174 2.33919e-08 0 
0.010511 -0.00459065 0.000446116 0.0105194 -0.00410483 0.00124295 5113 3696 0 43.4567 -188.483 -456.5 1.01283e-07 0 
0.0120168 -0.00536104 0.000773276 0.012375 -0.00485201 0.000717157 3901 10408 0 -0.00035049 -0.000602714 0.000140423 7.26997e-12 0 
0.0120168 -0.00536104 0.000773276 0.0119923 -0.0044089 0.000498526 3901 4329 0 -0.133101 -22.6493 4.56006 1.36274e-08 0 
0.0120168 -0.00536104 0.000773276 0.0122262 -0.00549453 0.00134682 3901 10397 0 0.00216793 -0.00121108 -0.00107367 3.65766e-14 0 
0.0120168 -0.00536104 0.000773276 0.0116718 -0.00507582 0.00165567 3901 4511 0 11.4969 -6.58112 -27.8552 1.65146e-08 0 
0.012375 -0.00485201 0.000717157 0.0119923 -0.0044089 0.000498526 10408 4329 0 0.000539648 -0.000648296 0.000234869 8.38334e-12 0 
-0.0120259 -0.00372181 0.000447429 -0.0120258 -0.00275973 0.000622033 1198 377 0 -1.99991 -89.7735 -29.6335 3.44907e-08 0 
-0.0120259 -0.00372181 0.000447429 -0.0111194 -0.00340177 0.0005375 1198 576 0 -175.047 -45.5211 -15.2925 5.31672e-08 0 
-0.0120259 -0.00372181 0.000447429 -0.012044 -0.00395177 0.00135777 1198 502 0 23.4814 102.107 -412.291 9.27275e-08 0 