ITEM: TIMESTEP
1700000
ITEM: NUMBER OF ATOMS
7358
ITEM: BOX BOUNDS mm pp mm
-0.0125 0.0125
-0.0075 0.0075
0 0.015
ITEM: ATOMS id type type x y z ix iy iz vx vy vz fx fy fz omegax omegay omegaz radius f_Temp[0] f_heatSource[0] 
1566 1 1 -0.0119987 -0.00700441 0.000499999 0 0 0 -0.00202149 0.0138596 -4.66009e-12 -2.06055e-06 -2.87101e-06 0 841.557 -627.931 -294.36 0.0005 573 0 
1274 1 1 -0.0106152 -0.00689623 0.000448423 0 0 0 1.12762e-06 -5.07695e-07 4.34351e-07 3.67791e-07 5.27351e-10 2.08001e-09 0.000878611 0.00203958 0.00189889 0.0005 573 0 
1422 1 1 -0.00943259 -0.00691419 0.00045966 0 0 0 1.29976e-06 -4.10728e-07 3.86688e-07 -5.28899e-08 -1.22762e-07 3.76249e-07 0.00072555 0.00261097 0.00117448 0.0005 573 0 
1497 1 1 -0.00719907 -0.00693968 0.000469923 0 0 0 1.48164e-06 -6.7213e-07 -1.54938e-08 -2.89917e-07 3.7518e-07 -4.11482e-07 0.00132216 0.00293813 -0.00564587 0.0005 573 0 
597 1 1 -0.00577963 -0.00671764 0.000833424 0 0 0 1.29446e-06 -2.09696e-07 -1.19475e-07 -3.69541e-07 4.37178e-07 -1.51481e-06 -0.0018424 -0.000824853 -0.00117319 0.0005 573 0 
598 1 1 -0.00507108 -0.00725713 0.000463554 0 0 0 7.20333e-07 -3.65691e-07 -6.9633e-08 -1.69625e-07 6.71653e-07 -8.90518e-07 0.000824402 0.00143317 0.000923975 0.0005 573 0 
638 1 1 -0.00374813 -0.00662937 0.000488144 0 0 0 -2.46775e-07 -2.1536e-07 -1.0981e-07 5.16837e-07 5.42392e-07 -2.44426e-07 -3.17349e-05 -0.000435344 -0.0002461 0.0005 573 0 
7346 2 2 -0.00398288 -0.00728093 0.000750164 0 0 0 4.61489e-07 -4.95634e-07 -2.50117e-08 3.77107e-08 4.65227e-08 -8.61301e-08 -0.00034683 -0.000235583 0.00428914 0.00025 573 0 
1033 1 1 -0.0027513 -0.00694246 0.000467847 0 0 0 -4.20541e-07 -4.57789e-07 -4.73201e-08 -2.36374e-07 1.34145e-07 -6.13514e-07 0.000581959 -0.000426842 -0.000162076 0.0005 573 0 
7343 2 2 -0.00343759 -0.00718601 0.000854048 0 0 0 -6.37973e-07 -4.54547e-07 -6.67018e-08 -2.16938e-09 1.36604e-08 -1.13271e-07 0.000720619 -0.000925612 -0.000443389 0.00025 573 0 
565 1 1 -0.00178316 -0.00712903 0.000467539 0 0 0 -6.42528e-07 -5.37784e-07 -6.54923e-08 -2.68275e-07 4.14682e-08 -4.87869e-07 0.000718697 -0.000853255 -0.000345268 0.0005 573 0 
560 1 1 -0.000621861 -0.00699722 0.000478788 0 0 0 -9.52911e-07 -7.66397e-07 3.61201e-09 -4.84169e-07 -3.45414e-07 -4.17753e-07 0.000618134 -0.00134862 -0.000151479 0.0005 573 0 
4612 1 1 0.000447079 -0.00725493 0.000499999 0 0 0 -0.000453672 -0.00129724 2.07938e-08 -1.01667e-06 -2.67863e-06 -4.91956e-10 1379.77 158.952 -1013.3 0.0005 573 0 
4652 1 1 0.00177014 -0.00669886 0.00051891 0 0 0 -5.08835e-07 -9.29312e-07 -3.09355e-07 5.73113e-07 -7.71886e-07 -3.29083e-07 -0.000630513 -0.000731247 0.000108417 0.0005 573 0 
4687 1 1 0.00272017 -0.00700045 0.000478277 0 0 0 -4.07589e-07 -6.47239e-07 -1.39933e-07 4.7966e-07 -4.34414e-07 -1.94499e-07 0.000651452 -0.000124805 2.86802e-05 0.0005 573 0 
4628 1 1 0.00364815 -0.0072691 0.00059151 0 0 0 -5.66922e-07 -6.69396e-07 -8.16227e-07 5.76103e-07 -5.78642e-07 -5.81989e-07 0.000262163 0.000790578 -0.000503731 0.0005 573 0 
4134 1 1 0.00466776 -0.00734809 0.000457266 0 0 0 -3.43922e-07 -5.7334e-07 -4.82443e-07 4.25177e-07 -5.78839e-08 -2.55113e-07 0.000830906 -0.000739746 -0.000272126 0.0005 573 0 
4428 1 1 0.00551617 -0.00703878 0.000819007 0 0 0 -3.95899e-07 -8.59983e-07 -8.21748e-07 5.8057e-07 1.807e-08 -7.2803e-07 2.89681e-05 0.000931085 0.000764789 0.0005 573 0 
4215 1 1 0.00668385 -0.00697662 0.00062512 0 0 0 -1.31553e-07 -3.67026e-07 -1.36665e-06 5.32626e-07 4.0662e-07 -8.13844e-07 0.000402894 0.00159517 0.000119113 0.0005 573 0 
3792 1 1 0.0075296 -0.00657517 0.000807976 0 0 0 3.43529e-07 -6.13416e-07 -1.55074e-06 4.54333e-07 3.84101e-07 -3.6939e-07 0.000746455 -0.000534415 -0.000590987 0.0005 573 0 
5036 1 1 0.00839255 -0.00676033 0.000461047 0 0 0 3.74811e-07 -5.07099e-07 -8.74414e-07 3.12297e-07 3.12475e-08 -1.79744e-07 0.00087112 0.000166601 0.00035076 0.0005 573 0 
4111 1 1 0.00913462 -0.00741482 0.000485967 0 0 0 5.97856e-07 -4.72135e-07 -9.35933e-07 7.88919e-07 1.42115e-07 -3.25802e-07 0.00048121 0.000713506 9.45101e-05 0.0005 573 0 
4352 1 1 0.00949102 -0.00661056 0.000921948 0 0 0 6.0521e-07 -6.27739e-07 -8.97251e-07 6.15795e-07 -3.30267e-07 -1.39509e-08 0.000859015 -3.48267e-06 0.000652415 0.0005 573 0 
4513 1 1 0.0102988 -0.00662824 0.000447993 0 0 0 1.98096e-07 -7.56208e-07 -4.21673e-07 3.05069e-07 -5.30529e-07 4.16838e-08 0.00121775 0.000149098 -0.00249361 0.0005 573 0 
4897 1 1 0.0111999 -0.00736644 0.000480785 0 0 0 4.74788e-08 -4.3424e-07 1.00238e-10 2.00097e-07 -5.32014e-07 4.3517e-08 -6.13942e-05 -0.00137002 -0.00139637 0.0005 573 0 
4640 1 1 0.0120297 -0.00684163 0.000489767 0 0 0 2.51976e-07 -2.21929e-07 -7.91051e-08 6.94172e-08 -1.52339e-07 1.52517e-08 -0.000666768 -2.24845e-05 0.000540256 0.0005 573 0 
270 1 1 -0.0111981 -0.00583005 0.000473941 0 0 0 1.14164e-06 -7.5065e-07 4.26504e-07 -1.27808e-08 -1.97175e-08 -9.4808e-08 0.00139834 0.00181806 -0.00244647 0.0005 573 0 
947 1 1 -0.0102077 -0.00599759 0.000480635 0 0 0 1.41416e-06 -7.69607e-07 4.51428e-07 1.94679e-07 -9.27131e-08 -1.78201e-07 0.00108438 0.0024604 -0.00212172 0.0005 573 0 
1637 1 1 -0.00887092 -0.00612276 0.000483293 0 0 0 1.34908e-06 -3.31345e-07 1.07496e-07 -3.64844e-08 -3.36362e-07 -3.24511e-07 -0.000148966 0.000460796 -0.00165567 0.0005 573 0 
1203 1 1 -0.00788784 -0.00621545 0.000458423 0 0 0 1.49333e-06 2.37818e-07 -2.23542e-07 -1.1748e-07 9.08302e-07 -3.60046e-07 -0.00043323 0.00241536 0.00331288 0.0005 573 0 
208 1 1 -0.00717682 -0.0055517 0.000546482 0 0 0 2.43316e-06 7.94848e-08 1.42168e-07 8.55821e-07 8.8658e-07 -1.22405e-07 0.000629803 -0.003602 -0.00518252 0.0005 573 0 
440 1 1 -0.00645647 -0.00618988 0.000441414 0 0 0 1.25553e-06 -6.09569e-07 4.62133e-08 -4.32909e-07 3.32196e-08 -6.88403e-07 0.00110937 0.00248288 0.00172257 0.0005 573 0 
687 1 1 -0.0046949 -0.00634525 0.000500694 0 0 0 1.23964e-07 -2.69781e-08 1.58222e-07 5.83519e-07 1.2272e-07 -1.13696e-06 0.000564964 0.00103915 -8.58565e-05 0.0005 573 0 
1481 1 1 -0.00388308 -0.00564765 0.000462303 0 0 0 5.75142e-08 -2.37242e-07 -1.82229e-09 -6.63838e-08 4.72261e-07 -7.67645e-07 0.000523917 -4.78628e-05 -0.000664089 0.0005 573 0 
1162 1 1 -0.00298254 -0.00599924 0.000469033 0 0 0 -2.25527e-07 -4.67773e-07 -1.2722e-08 4.66125e-09 2.62557e-07 -5.52627e-07 0.000141389 -0.000499409 -0.000295014 0.0005 573 0 
1698 1 1 -0.00199483 -0.00616838 0.000450383 0 0 0 -5.37003e-07 -5.3589e-07 -1.21547e-08 -1.96786e-07 3.89383e-08 -4.45786e-07 0.000637653 -0.000615944 9.68443e-05 0.0005 573 0 
492 1 1 -0.00109038 -0.00619883 0.000809736 0 0 0 -9.43216e-07 -1.01993e-06 -1.93082e-07 -3.01706e-07 -4.18177e-07 -5.99413e-07 -8.87152e-05 0.000506083 -0.000277566 0.0005 573 0 
518 1 1 -0.000280042 -0.00580914 0.000468403 0 0 0 -6.7534e-07 -1.0342e-06 -2.57921e-07 -3.57119e-07 -6.05612e-07 -3.32793e-07 0.00132902 -0.000834752 -0.000406115 0.0005 573 0 
4354 1 1 0.00063433 -0.00615798 0.00044831 0 0 0 -7.86029e-07 -1.04153e-06 -9.35235e-08 -3.60048e-09 -1.03121e-06 -4.99785e-07 0.00192922 -0.00122955 0.000405593 0.0005 573 0 
3531 1 1 0.00158029 -0.00574309 0.000462019 0 0 0 -6.48657e-07 -1.05508e-06 1.80486e-09 7.32166e-08 -5.27222e-07 -2.7331e-07 0.0019352 -0.0010492 0.000397214 0.0005 573 0 
5028 1 1 0.00249963 -0.00605035 0.000484894 0 0 0 -4.82201e-07 -7.60621e-07 1.4587e-08 1.42627e-07 -2.00288e-07 -1.13174e-07 0.000764952 -0.000202881 0.000453047 0.0005 573 0 
4810 1 1 0.00344767 -0.00593257 0.000487838 0 0 0 -2.70839e-07 -6.69343e-07 -3.98174e-07 1.13255e-07 -1.10916e-07 -1.81184e-07 0.00100039 0.000487862 -0.000176611 0.0005 573 0 
3628 1 1 0.00422854 -0.00649907 0.000480628 0 0 0 -3.33197e-07 -6.32557e-07 -5.83047e-07 2.67354e-07 -4.57184e-08 -1.50912e-07 0.00031913 -0.000668751 5.19076e-05 0.0005 573 0 
3994 1 1 0.00434194 -0.00554506 0.000474636 0 0 0 -1.85682e-07 -6.71982e-07 -6.51697e-07 -1.85556e-07 2.62204e-08 -2.12073e-07 0.000170038 0.00032709 -0.000286411 0.0005 573 0 
5099 1 1 0.00529756 -0.00571046 0.000629193 0 0 0 -3.27327e-07 -8.52365e-07 -1.03748e-06 -1.91098e-07 2.46613e-07 -3.03065e-07 0.000324331 -0.000314658 1.99954e-05 0.0005 573 0 
5022 1 1 0.00602642 -0.006298 0.000451684 0 0 0 -3.596e-07 -5.24683e-07 -6.78446e-07 4.00189e-08 2.51721e-07 -3.25623e-07 0.000711419 -0.000884678 1.70252e-05 0.0005 573 0 
5017 1 1 0.00704314 -0.00583071 0.000456007 0 0 0 1.43224e-07 -4.22464e-07 -7.1093e-07 -1.88144e-08 4.67283e-07 -9.18948e-08 0.0010224 6.24114e-05 0.00109375 0.0005 573 0 
5015 1 1 0.00798432 -0.00561608 0.000472532 0 0 0 9.02411e-08 -2.00255e-07 -6.52465e-07 -3.02076e-07 1.98558e-07 6.44022e-09 2.69716e-05 2.31201e-05 -0.000473453 0.0005 573 0 
3622 1 1 0.00890656 -0.00595905 0.000478991 0 0 0 1.39536e-07 -4.28975e-07 -5.46818e-07 4.67328e-08 -1.82594e-07 8.26985e-09 0.000484475 0.000340725 0.000152995 0.0005 573 0 
4737 1 1 0.00979475 -0.0055942 0.000448021 0 0 0 2.73232e-08 -4.69886e-07 -4.50666e-07 -3.41734e-07 -5.47619e-07 2.88184e-07 0.00067015 -3.50465e-05 -0.000171944 0.0005 573 0 
3913 1 1 0.0112112 -0.00632681 0.000467302 0 0 0 2.53939e-07 -1.04916e-06 -3.03187e-07 3.1998e-08 -4.93594e-07 8.62691e-08 0.00110691 0.000379341 0.00157153 0.0005 573 0 
668 1 1 -0.0120078 -0.00496279 0.000482183 0 0 0 3.92342e-07 -1.12588e-07 1.48613e-07 -6.66835e-08 1.37097e-07 3.14441e-08 5.26074e-06 0.000495739 -3.17412e-05 0.0005 573 0 
1268 1 1 -0.010593 -0.00524298 0.000978215 0 0 0 2.0076e-06 -1.33164e-06 8.67518e-07 -1.194e-08 -1.41872e-07 -3.88936e-07 -0.000149385 -0.000653126 0.00173654 0.0005 573 0 
1459 1 1 -0.00943531 -0.0053302 0.000456549 0 0 0 1.28617e-06 -6.86288e-07 3.16846e-07 -6.13015e-08 -1.20432e-07 -1.77674e-07 0.000836346 0.00237862 0.00222453 0.0005 573 0 
475 1 1 -0.0082646 -0.00525545 0.000498657 0 0 0 1.4556e-06 -4.19006e-07 2.24666e-07 -8.42094e-07 5.59674e-07 -1.00216e-07 -0.000487477 0.00301023 -0.000187209 0.0005 573 0 
1560 1 1 -0.00723692 -0.0045857 0.000493982 0 0 0 3.38928e-06 1.21451e-07 -1.06433e-07 1.00218e-06 1.06057e-06 3.72292e-07 -0.0011176 0.0070587 0.00365567 0.0005 573 0 
332 1 1 -0.00608612 -0.0053092 0.000469637 0 0 0 6.10129e-07 -3.13919e-07 1.51866e-07 -7.24348e-07 3.05789e-07 -7.55858e-07 0.000364814 0.00118749 -8.163e-05 0.0005 573 0 
1556 1 1 -0.00557149 -0.00450038 0.000477202 0 0 0 2.13611e-07 -2.68189e-07 -3.91989e-08 -5.2191e-07 2.32186e-07 -5.0218e-07 8.9112e-05 -0.00018765 0.000406234 0.0005 573 0 
205 1 1 -0.00481423 -0.00536681 0.000469477 0 0 0 3.12578e-07 9.51153e-08 1.49164e-07 -3.79459e-07 -8.69134e-08 -8.49085e-07 -0.000596496 0.000768571 -4.67043e-07 0.0005 573 0 
242 1 1 -0.00298136 -0.00503457 0.000454359 0 0 0 -2.81611e-07 -6.2887e-07 -1.16449e-07 -2.35667e-07 2.00612e-07 -4.19743e-07 0.000622838 -0.0005857 0.000476277 0.0005 573 0 
1153 1 1 -0.00148132 -0.00535254 0.000477615 0 0 0 -3.2067e-07 -6.07553e-07 -1.22619e-08 -3.90334e-07 1.1095e-07 -4.37252e-07 0.000286893 0.000430752 -0.000742133 0.0005 573 0 
1529 1 1 -0.0006406 -0.00489452 0.000468501 0 0 0 -4.20565e-07 -1.14763e-06 -2.04304e-07 -1.6628e-07 -4.17258e-07 -1.16913e-07 0.000789939 -0.000608736 -0.000227554 0.0005 573 0 
3782 1 1 0.00145803 -0.00476129 0.000578217 0 0 0 -5.14747e-07 -1.59134e-06 -4.52522e-07 -4.71296e-08 -4.83013e-07 -5.93905e-07 -0.00168391 -0.00140518 -0.000192916 0.0005 573 0 
5018 1 1 0.00227305 -0.00519681 0.000874129 0 0 0 -6.04136e-07 -1.08003e-06 -1.9194e-07 -1.27962e-07 -3.87985e-07 -2.24012e-07 -0.00128595 0.00170026 -0.000250031 0.0005 573 0 
4539 1 1 0.00317362 -0.00497761 0.000495617 0 0 0 -2.77574e-07 -7.9806e-07 -2.45279e-07 1.22987e-07 -3.00615e-08 -1.2638e-07 0.00060342 -0.00086573 0.000279803 0.0005 573 0 
4744 1 1 0.00420695 -0.00457888 0.000470853 0 0 0 -1.8447e-07 -7.61716e-07 -5.4732e-07 -3.7919e-07 1.68132e-07 -1.33745e-07 0.000756916 -0.000465114 0.000345364 0.0005 573 0 
4630 1 1 0.00542533 -0.00477409 0.00043494 0 0 0 -9.74873e-08 -6.22248e-07 -5.54665e-07 -3.89446e-07 1.80243e-07 -7.43155e-08 0.000830403 -4.93608e-05 -0.000189481 0.0005 573 0 
3813 1 1 0.00620812 -0.0053439 0.00048635 0 0 0 -1.27542e-07 -6.63148e-07 -6.2723e-07 -2.6058e-07 2.95851e-07 -8.12235e-08 -8.10353e-05 -0.000167407 -0.000291571 0.0005 573 0 
3762 1 1 0.00717828 -0.00469893 0.000664387 0 0 0 1.9238e-08 -6.60889e-07 -8.84314e-07 -6.74159e-07 5.5726e-07 2.60379e-07 0.000186077 -0.000222048 4.67899e-05 0.0005 573 0 
4004 1 1 0.00811812 -0.00463562 0.000476723 0 0 0 5.45481e-08 -2.74374e-07 -4.61059e-07 -2.63812e-07 1.68386e-07 7.1184e-08 0.00045698 -0.000115716 0.000521355 0.0005 573 0 
4061 1 1 0.00903397 -0.00498515 0.000464181 0 0 0 1.51796e-07 -2.83627e-07 -4.55927e-07 -2.54232e-07 -1.98809e-07 1.68366e-07 0.000195323 1.2364e-05 -0.000370605 0.0005 573 0 
4579 1 1 0.0110743 -0.00536821 0.000491501 0 0 0 8.70586e-08 -1.01655e-06 -2.04654e-07 -1.41945e-07 -5.93927e-07 4.3571e-07 0.000477498 -0.000224226 -0.0011143 0.0005 573 0 
5113 1 1 0.0105127 -0.00458403 0.000448353 0 0 0 2.80027e-07 -6.34179e-07 -2.86109e-07 -3.04476e-07 -6.46409e-07 4.20765e-07 0.000652646 0.000293908 0.000385833 0.0005 573 0 
3901 1 1 0.0120158 -0.0053491 0.000769608 0 0 0 5.27897e-08 -6.29927e-07 -7.54303e-08 -1.20596e-07 -3.57418e-07 6.22645e-07 -0.0034566 -2.88985e-05 0.00128424 0.0005 573 0 
7285 2 2 -0.0122574 -0.00427864 0.000601133 0 0 0 3.08568e-07 -6.17074e-08 9.58248e-08 -1.21618e-08 8.16053e-09 -7.78265e-09 -0.000578667 0.000356872 3.47251e-05 0.00025 573 0 
7287 2 2 -0.0122518 -0.00394863 0.000241157 0 0 0 6.66937e-08 -9.79898e-08 4.56266e-08 -3.58724e-09 8.31761e-09 -3.52822e-09 0.00056057 0.000244429 0.000264702 0.00025 573 0 
7288 2 2 -0.0117768 -0.00388214 0.0005504 0 0 0 7.07591e-07 -5.94173e-07 3.77989e-07 4.27443e-08 -2.83004e-08 -5.65795e-09 -0.00179358 0.00175211 0.00188423 0.00025 573 0 
7290 2 2 -0.0117981 -0.00428121 0.000249978 0 0 0 3.91517e-07 -3.72224e-07 2.84525e-07 1.02021e-07 -4.57609e-08 7.77613e-09 0.00178096 0.00167214 -0.00086648 0.00025 573 0 
895 1 1 -0.0112829 -0.00438912 0.000798313 0 0 0 8.76302e-07 -7.88179e-07 6.70864e-07 -1.8168e-07 2.69337e-08 -1.95968e-07 0.000319343 -0.00122329 -0.00119804 0.0005 573 0 
1100 1 1 -0.010375 -0.00444056 0.000471463 0 0 0 9.70685e-07 -9.49591e-07 7.13529e-07 -2.11461e-07 -8.40781e-08 -3.47791e-07 0.00127726 0.00140393 1.27967e-05 0.0005 573 0 
1312 1 1 -0.00988874 -0.00374468 0.000949276 0 0 0 1.34763e-06 -1.32703e-06 4.68299e-07 -7.13281e-07 1.92229e-07 -4.87787e-07 -0.000641687 7.44217e-05 0.000275988 0.0005 573 0 
481 1 1 -0.00917184 -0.00416311 0.000456993 0 0 0 1.00122e-06 -9.28259e-07 4.03964e-07 -4.92888e-07 3.74531e-07 -4.90805e-07 0.00162144 0.00111708 0.00017435 0.0005 573 0 
1298 1 1 -0.0082131 -0.00426042 0.000439353 0 0 0 9.38041e-07 -6.40433e-07 2.47131e-10 -6.43013e-07 5.30281e-07 -4.0978e-07 0.00131455 0.00117519 0.000291117 0.0005 573 0 
595 1 1 -0.00741481 -0.00363257 0.000477737 0 0 0 9.17028e-07 -6.12601e-07 4.04466e-07 -8.62907e-07 5.58035e-07 -8.68465e-07 0.000873064 0.00121806 0.000961536 0.0005 573 0 
682 1 1 -0.00640803 -0.00399081 0.000469036 0 0 0 5.43401e-07 -4.61243e-07 1.58512e-07 -6.08467e-07 4.58734e-07 -6.74369e-07 -8.73307e-05 0.00134207 0.000122095 0.0005 573 0 
1164 1 1 -0.00549285 -0.00351869 0.000462782 0 0 0 7.78353e-08 -3.59759e-07 2.14137e-07 -4.68869e-07 1.91223e-07 -8.17233e-07 0.000700199 4.07091e-05 -0.000645726 0.0005 573 0 
594 1 1 -0.00461778 -0.00442051 0.000483311 0 0 0 1.29618e-07 -2.99483e-07 -8.29832e-09 -6.52582e-07 2.18785e-07 -7.33104e-07 0.000587818 0.000377524 -5.023e-05 0.0005 573 0 
1441 1 1 -0.00366289 -0.00436274 0.000474285 0 0 0 -1.52624e-07 -6.654e-07 -1.46402e-07 -2.47329e-07 1.56459e-07 -6.94775e-07 0.00073104 -0.000380058 -0.000737785 0.0005 573 0 
1623 1 1 -0.00244669 -0.00421861 0.000477009 0 0 0 -2.81928e-07 -6.0471e-07 -3.64239e-08 -3.88182e-07 3.28136e-07 -5.82704e-07 0.000214905 -6.42818e-05 -0.000480482 0.0005 573 0 
279 1 1 -0.00145937 -0.0043504 0.000478457 0 0 0 -4.96287e-07 -1.43751e-06 -4.95969e-08 -5.60815e-08 -2.28753e-07 -4.2888e-07 0.00313473 -0.00113978 8.16453e-05 0.0005 573 0 
1613 1 1 -0.000232702 -0.00403579 0.000564359 0 0 0 -2.42194e-07 -1.78126e-06 -7.33074e-07 3.28517e-07 -7.88432e-07 -2.48358e-07 -0.00158681 -0.000887213 -0.000385321 0.0005 573 0 
3802 1 1 0.000713559 -0.00413953 0.000472309 0 0 0 -2.37432e-07 -1.70013e-06 -4.76766e-07 2.1106e-07 -4.97097e-07 -2.59006e-07 0.00324434 0.000216975 0.000406111 0.0005 573 0 
4371 1 1 0.00160792 -0.00379618 0.000468365 0 0 0 -4.18907e-07 -1.19708e-06 -5.33479e-07 1.81797e-09 -1.61907e-07 -9.43571e-08 0.00112303 -8.24682e-05 0.00058681 0.0005 573 0 
4346 1 1 0.00239017 -0.00436167 0.000453757 0 0 0 -4.13773e-07 -8.77107e-07 -6.13745e-07 -2.06379e-07 -1.30933e-07 -7.83499e-08 0.000905693 -0.000631225 -7.81972e-05 0.0005 573 0 
4431 1 1 0.00318828 -0.00381739 0.00045358 0 0 0 -4.06816e-07 -8.52827e-07 -4.74102e-07 -3.42428e-07 7.73102e-08 9.56704e-08 0.00100223 -0.000187678 -0.000233199 0.0005 573 0 
4068 1 1 0.00494765 -0.00391491 0.000487776 0 0 0 -8.18492e-08 -5.76521e-07 -4.13577e-07 -7.39617e-07 2.54261e-07 -2.31869e-07 0.000154796 -8.10522e-05 -4.2066e-05 0.0005 573 0 
4697 1 1 0.00585493 -0.00351315 0.000471131 0 0 0 -1.51407e-07 -7.17594e-07 -2.60888e-07 -8.26071e-07 2.24346e-07 -3.24987e-08 0.000911257 -0.000119915 -2.82204e-05 0.0005 573 0 
3961 1 1 0.00631145 -0.00436222 0.000460087 0 0 0 -3.62966e-08 -6.06223e-07 -5.56683e-07 -6.28795e-07 3.04948e-07 1.04781e-07 0.000764234 1.89674e-05 0.000239437 0.0005 573 0 
3617 1 1 0.00718141 -0.00371776 0.000484763 0 0 0 -8.40284e-08 -4.75389e-07 -6.27159e-07 -4.65754e-07 3.61273e-07 1.08434e-07 0.000690225 -0.000173208 0.000334414 0.0005 573 0 
4702 1 1 0.00860672 -0.00379727 0.000459738 0 0 0 1.20952e-07 -3.30767e-07 -3.41415e-07 -1.90756e-07 -1.69754e-07 4.01829e-07 0.000393349 0.000219657 -0.00056902 0.0005 573 0 
4965 1 1 0.00953089 -0.00414591 0.000470268 0 0 0 2.46716e-07 -4.7883e-07 -4.1246e-07 -5.69445e-08 -5.30472e-07 3.75108e-07 0.000640539 0.000445137 0.000127748 0.0005 573 0 
4565 1 1 0.0111463 -0.00383118 0.000493773 0 0 0 8.19135e-08 -5.47232e-07 -1.10214e-07 1.53045e-07 -1.17621e-06 2.46026e-07 0.000443619 -0.000467572 3.15959e-05 0.0005 573 0 
4329 1 1 0.0119937 -0.00439587 0.000498072 0 0 0 -1.36599e-07 -7.54065e-07 -7.23602e-07 7.82389e-07 -8.80678e-07 -9.05958e-07 0.00173155 -0.000419215 -0.000935956 0.0005 573 0 
377 1 1 -0.0120021 -0.00279331 0.00049715 0 0 0 3.80209e-07 -5.59051e-07 4.36389e-08 -1.55128e-07 1.98051e-07 2.23326e-07 0.000719356 0.000569453 -0.000900791 0.0005 573 0 
7284 2 2 -0.0117404 -0.00337862 0.000920134 0 0 0 -0.00593982 0.000576111 -0.0125183 0 0 -2.2087e-06 26557 -12069.6 -28506.9 0.00025 573 0 
7286 2 2 -0.0118114 -0.00349003 0.000242167 0 0 0 2.48451e-07 -5.10748e-07 4.33958e-07 -8.18187e-09 -1.5353e-08 -1.33188e-08 0.00213353 -0.000591116 -0.00145644 0.00025 573 0 
7289 2 2 -0.0122527 -0.00333713 0.000943225 0 0 0 4.35214e-07 -3.81997e-07 2.30929e-07 -1.51442e-08 1.84971e-08 4.83155e-09 -0.00079546 0.000477174 -0.000286298 0.00025 573 0 
7291 2 2 -0.0122642 -0.00348465 0.000409971 0 0 0 2.57505e-08 -1.72328e-07 8.6663e-08 3.78776e-10 5.88529e-09 2.07242e-09 -0.000836882 -0.00067142 -0.000443587 0.00025 573 0 
576 1 1 -0.0111241 -0.00346108 0.000496244 0 0 0 7.68429e-07 -7.53089e-07 5.0972e-07 -2.34054e-07 1.89896e-08 -1.54141e-07 0.000551475 0.00116177 0.000723732 0.0005 573 0 
915 1 1 -0.0102652 -0.00298341 0.00047665 0 0 0 7.42726e-07 -8.39118e-07 2.00521e-07 -4.73849e-07 2.0696e-07 -2.2047e-07 0.000803156 0.000678914 -0.000304745 0.0005 573 0 
1540 1 1 -0.00928259 -0.00313069 0.000486392 0 0 0 9.27593e-07 -7.82499e-07 -2.52951e-07 -6.75514e-07 1.63744e-07 -1.0391e-07 0.000759699 0.00123091 0.000356761 0.0005 573 0 
768 1 1 -0.00831937 -0.00328046 0.000553363 0 0 0 1.02849e-06 -8.96126e-07 7.87393e-08 -9.34179e-07 4.35993e-07 -6.95193e-07 -0.000637544 -0.0016183 -0.000564358 0.0005 573 0 
1419 1 1 -0.00755187 -0.00264392 0.000499395 0 0 0 5.12822e-07 -6.52102e-07 1.96195e-07 -5.28874e-07 3.83464e-07 -8.18948e-07 -0.00106223 0.000283933 0.0007458 0.0005 573 0 
1376 1 1 -0.0066398 -0.00304957 0.000461784 0 0 0 5.10973e-07 -6.93909e-07 2.49638e-07 -8.73619e-07 3.83316e-07 -7.76079e-07 0.00109861 0.000602395 -0.000383177 0.0005 573 0 
982 1 1 -0.00452606 -0.00348344 0.000700762 0 0 0 -2.06826e-07 -7.98474e-07 -3.65465e-08 -7.12021e-07 3.51936e-07 -1.14207e-06 -0.000555983 0.00146506 0.000679623 0.0005 573 0 
1272 1 1 -0.00492096 -0.00261269 0.00047394 0 0 0 -2.32844e-07 -5.75169e-07 -1.00404e-07 -5.08366e-07 2.09054e-07 -5.24732e-07 0.00109691 -0.000685308 -0.00127679 0.0005 573 0 
701 1 1 -0.00393516 -0.00275576 0.000470168 0 0 0 -5.16688e-07 -9.09346e-07 -5.73498e-08 -4.89721e-07 4.06407e-07 -9.15177e-07 0.00135277 -0.0009778 -0.000565738 0.0005 573 0 
1612 1 1 -0.0032439 -0.00347615 0.00044593 0 0 0 -2.26811e-07 -7.20165e-07 -1.94634e-07 -6.90313e-07 6.15082e-07 -1.19954e-06 0.000929966 0.000523025 0.00141414 0.0005 573 0 
1372 1 1 -0.00252604 -0.00261063 0.000467306 0 0 0 -7.57465e-07 -8.34866e-07 -5.82091e-08 -4.17956e-07 4.00102e-07 -7.65762e-07 0.000513571 -0.00174777 0.00161192 0.0005 573 0 
1228 1 1 -0.00195135 -0.00338449 0.000485011 0 0 0 -3.69905e-08 -7.66571e-07 7.63831e-08 -2.06535e-07 1.76145e-07 -3.0994e-07 0.000852474 0.000552656 -0.000494082 0.0005 573 0 
99 1 1 -0.000996049 -0.00346084 0.000474648 0 0 0 -1.03325e-07 -1.5221e-06 -5.99202e-07 3.89691e-07 -5.98843e-07 -4.16404e-07 0.00282893 0.000231429 -0.000482812 0.0005 573 0 
3765 1 1 -0.000466744 -0.00276366 0.00089171 0 0 0 -6.49281e-07 -1.93011e-06 -8.73778e-07 3.80234e-07 -8.96362e-07 -1.54013e-07 -0.00228459 -0.000997208 0.000740657 0.0005 573 0 
3512 1 1 0.000266385 -0.00322709 0.00046225 0 0 0 -2.15418e-07 -1.28695e-06 -5.37904e-07 1.18017e-07 -5.02841e-07 -1.77187e-07 0.00222556 0.000242818 0.00106992 0.0005 573 0 
3853 1 1 0.00116488 -0.00293045 0.000414567 0 0 0 -2.98601e-07 -9.22961e-07 -4.4642e-07 -7.58671e-08 -2.27908e-07 2.14048e-08 0.000931472 -0.000450062 -0.000702326 0.0005 573 0 
4785 1 1 0.00240248 -0.00326346 0.000466825 0 0 0 -4.60808e-07 -8.00142e-07 -4.53218e-07 -2.36011e-07 -1.90879e-08 7.98495e-08 0.000507181 -0.00042667 0.000223343 0.0005 573 0 
4731 1 1 0.00339825 -0.00286958 0.000526857 0 0 0 -4.816e-07 -8.64728e-07 -5.10151e-07 -6.66319e-07 2.08909e-07 2.4552e-07 -0.000226065 0.000177454 0.000284437 0.0005 573 0 
4932 1 1 0.00432785 -0.00312807 0.000470885 0 0 0 -3.4039e-07 -8.52269e-07 -5.58003e-07 -7.77269e-07 3.14303e-07 6.7511e-08 0.00102479 -0.000318127 -0.000287782 0.0005 573 0 
5033 1 1 0.00521964 -0.00279959 0.000511753 0 0 0 -3.93393e-07 -9.76303e-07 -5.4712e-07 -1.11568e-06 5.48168e-07 4.52368e-09 -0.00101996 -0.000225126 0.000465398 0.0005 573 0 
4351 1 1 0.00673288 -0.00273921 0.000454317 0 0 0 -6.08747e-07 -5.82436e-07 -4.36998e-07 -5.29199e-07 1.76976e-07 7.56418e-08 0.000827434 -0.00132554 0.00173221 0.0005 573 0 
3711 1 1 0.00779124 -0.00293978 0.000484981 0 0 0 -3.58424e-07 -4.22857e-07 -4.55017e-07 4.05533e-07 -8.74533e-07 2.86966e-07 0.000414847 -0.000213083 0.000368653 0.0005 573 0 
5082 1 1 0.00937117 -0.00295308 0.000475104 0 0 0 2.12275e-07 -5.92535e-07 -3.28347e-07 -2.63256e-07 -2.73551e-07 5.5364e-07 0.00122932 0.000455252 -0.0012243 0.0005 573 0 
4914 1 1 0.0102282 -0.00346915 0.000470724 0 0 0 2.98336e-07 -6.80584e-07 -1.9916e-07 -8.77776e-08 -6.35833e-07 5.32376e-07 0.00108721 0.000562194 -0.000375555 0.0005 573 0 
5143 1 1 0.0102174 -0.00251347 0.000710639 0 0 0 3.55212e-07 -1.14679e-06 -2.24189e-07 -4.08553e-07 -7.11102e-07 8.53193e-07 -0.000348287 -0.000739738 0.000101205 0.0005 573 0 
4653 1 1 0.0110501 -0.00277717 0.000403223 0 0 0 3.0985e-07 -7.21382e-07 -1.19345e-07 -2.06624e-07 -7.51025e-07 5.44424e-07 0.00140668 0.000480444 0.000382933 0.0005 573 0 
4417 1 1 0.0120296 -0.00340532 0.000472014 0 0 0 1.85931e-07 -3.98607e-07 3.01473e-09 1.69556e-07 -1.08506e-06 6.72405e-08 0.000376005 0.000350189 0.000421066 0.0005 573 0 
15 1 1 -0.0116544 -0.00186205 0.000463836 0 0 0 5.09243e-07 -7.74066e-07 2.74828e-07 -1.67427e-07 3.34927e-07 -4.04469e-08 0.00106683 0.000619734 -0.000268992 0.0005 573 0 
978 1 1 -0.0107028 -0.00209687 0.000482553 0 0 0 6.52428e-07 -8.43063e-07 2.20627e-07 -3.41509e-07 1.86835e-07 -1.52996e-07 0.000952952 0.000525938 0.000726205 0.0005 573 0 
1169 1 1 -0.00967148 -0.00222265 0.000454428 0 0 0 6.38538e-07 -7.32365e-07 1.69598e-07 -4.86259e-07 1.86186e-07 -2.22836e-07 0.000725549 0.00110804 0.000412138 0.0005 573 0 
761 1 1 -0.00864155 -0.00235301 0.00046324 0 0 0 7.98308e-07 -7.18585e-07 4.81244e-08 -9.17122e-07 1.37651e-07 -3.44682e-07 0.000810537 0.00138914 0.000575484 0.0005 573 0 
1699 1 1 -0.00826725 -0.00162924 0.000993036 0 0 0 1.0208e-06 -1.354e-06 1.97402e-07 -2.03789e-07 3.24464e-07 -4.6608e-07 0.000941208 0.000289743 0.000106539 0.0005 573 0 
1460 1 1 -0.00743677 -0.00165332 0.000474902 0 0 0 5.57291e-07 -8.97237e-07 -3.02035e-08 7.43424e-07 8.5304e-07 7.93859e-07 0.00169295 0.000866895 -0.00105672 0.0005 573 0 
56 1 1 -0.00587517 -0.00245905 0.000464663 0 0 0 1.35951e-07 -4.05023e-07 7.68165e-08 -8.8975e-07 2.03192e-07 -5.33308e-07 0.000527407 0.000738175 0.0012805 0.0005 573 0 
1309 1 1 -0.00423497 -0.00181717 0.000445847 0 0 0 -7.28692e-07 -9.25456e-07 1.85719e-07 -4.77235e-07 7.98487e-08 -8.39178e-07 0.00128711 -0.00156257 0.00128332 0.0005 573 0 
524 1 1 -0.00235186 -0.0016628 0.000568422 0 0 0 -1.5579e-06 -1.26119e-06 -6.12628e-07 -1.47045e-07 -9.75384e-08 -1.02626e-06 -0.000751133 0.000648099 -0.000229673 0.0005 573 0 
1388 1 1 -0.00131719 -0.00235044 0.000499999 0 0 0 0.0131535 0.0637666 2.077e-12 -4.27857e-17 5.07936e-16 0 -127.533 26.3071 -194.391 0.0005 573 0 
4388 1 1 6.65623e-06 -0.00206998 0.000450588 0 0 0 -4.72832e-07 -1.29542e-06 -8.20345e-07 -6.43242e-08 -4.67281e-07 -1.47601e-07 0.00193722 -0.000261531 0.000386535 0.0005 573 0 
4662 1 1 0.000796732 -0.00226951 0.000972859 0 0 0 -6.18064e-07 -1.54333e-06 -1.02426e-06 -2.49238e-07 -5.49692e-07 1.85531e-07 0.000113793 -0.000713237 0.000851817 0.0005 573 0 
4809 1 1 0.00163734 -0.00209372 0.000487477 0 0 0 -3.66194e-07 -7.72318e-07 -6.62327e-07 -3.54657e-07 -1.77887e-07 1.92508e-07 -9.77457e-05 0.000223647 0.000697994 0.0005 573 0 
3789 1 1 0.00259168 -0.0023316 0.000472998 0 0 0 -5.62817e-07 -6.49208e-07 -6.60293e-07 -4.53167e-07 7.87225e-08 3.05857e-07 0.000129512 -0.000607457 -8.60265e-05 0.0005 573 0 
3978 1 1 0.00347834 -0.00190073 0.000448405 0 0 0 -5.86262e-07 -6.83495e-07 -3.26492e-07 -6.78922e-07 3.15412e-07 3.54819e-07 0.000870294 -0.000942601 -0.000127496 0.0005 573 0 
4875 1 1 0.00465688 -0.00157769 0.000446136 0 0 0 -6.35329e-07 -5.05256e-07 -5.85255e-07 -8.14281e-07 1.53126e-07 1.33371e-07 0.000704517 -0.000975714 -7.26646e-05 0.0005 573 0 
3734 1 1 0.00564746 -0.00195303 0.000465419 0 0 0 -4.01845e-07 -7.24721e-07 -4.90427e-07 -8.5465e-07 3.44478e-07 -1.90582e-08 0.000856322 -0.000515838 -0.000106756 0.0005 573 0 
3855 1 1 0.00653889 -0.00155265 0.00048136 0 0 0 -3.06443e-07 -6.4751e-07 -2.13465e-07 -3.18947e-07 -5.47882e-08 -9.00344e-08 0.000981285 9.27818e-05 0.000260338 0.0005 573 0 
4508 1 1 0.00735824 -0.0021215 0.00084428 0 0 0 -8.97086e-07 -5.495e-07 -4.55041e-07 2.31675e-07 -9.59208e-07 -1.09171e-07 0.000126664 0.00136142 -0.000432606 0.0005 573 0 
3915 1 1 0.00864038 -0.00225953 0.000460577 0 0 0 -7.10969e-08 -6.14789e-07 -4.9182e-07 2.3316e-08 -7.67485e-07 3.642e-07 0.00122912 4.15327e-05 -0.0014635 0.0005 573 0 
4668 1 1 0.00952899 -0.00187749 0.000471243 0 0 0 3.72803e-08 -9.99849e-07 -3.55218e-07 -2.8506e-07 -2.78916e-07 4.24339e-07 0.000985552 0.000116581 0.000521154 0.0005 573 0 
4708 1 1 0.0110982 -0.00179952 0.000546543 0 0 0 -7.93235e-08 -1.1227e-06 -3.56303e-07 -2.43656e-07 -8.73532e-07 7.55406e-07 -0.00161147 -0.000407137 0.00063979 0.0005 573 0 
3895 1 1 0.0120219 -0.0021508 0.000476343 0 0 0 2.18129e-07 -5.21324e-07 -4.86303e-08 2.07252e-09 -7.80793e-07 4.45584e-07 0.000658997 0.000233697 0.000390966 0.0005 573 0 
1185 1 1 -0.0110209 -0.00112884 0.000445977 0 0 0 4.49397e-07 -6.76501e-07 3.07707e-07 -1.55605e-07 2.15891e-07 -1.49083e-07 0.00107965 0.000863356 0.00042959 0.0005 573 0 
1519 1 1 -0.0100762 -0.00134611 0.000470093 0 0 0 5.24023e-07 -6.18226e-07 2.01356e-07 -3.21137e-07 1.36126e-07 -1.31591e-07 -9.68801e-05 0.000126815 -0.000402413 0.0005 573 0 
101 1 1 -0.00906585 -0.00145328 0.00046447 0 0 0 5.97341e-07 -6.95926e-07 3.2513e-07 -5.13083e-07 1.26547e-07 -3.15125e-07 0.000956554 0.000683119 -0.000456818 0.0005 573 0 
143 1 1 -0.00840014 -0.000754275 0.000618918 0 0 0 7.68915e-07 -1.17036e-06 6.21317e-08 -5.39556e-07 -5.95545e-08 -5.00476e-07 -0.000843146 -3.7391e-05 -4.41339e-06 0.0005 573 0 
314 1 1 -0.0074597 -0.000646267 0.000460538 0 0 0 5.01578e-07 -9.09574e-07 7.38239e-08 1.40373e-06 -2.73279e-06 3.82546e-06 0.00159714 0.000447402 0.000383054 0.0005 573 0 
128 1 1 -0.00648514 -0.000776276 0.000474635 0 0 0 1.41238e-07 -4.95386e-07 -1.36347e-08 -2.13408e-06 -1.04442e-06 1.38623e-06 0.000895306 -0.000157957 -0.000303744 0.0005 573 0 
577 1 1 -0.00578675 -0.00147496 0.000497292 0 0 0 -5.7391e-07 -6.55732e-07 1.5792e-07 -6.78446e-07 -3.90219e-07 -4.93814e-07 0.000293935 -0.00145203 -0.000623089 0.0005 573 0 
304 1 1 -0.00488713 -0.00118043 0.000776453 0 0 0 -1.07616e-06 -1.43862e-06 2.01779e-07 -7.58768e-07 -4.3358e-07 -1.02534e-06 -0.000271678 0.000904717 -0.00026999 0.0005 573 0 
1213 1 1 -0.00403326 -0.000810258 0.000478797 0 0 0 -7.82369e-07 -1.07998e-06 -2.00401e-07 -4.43751e-07 -2.59496e-07 -7.73601e-07 0.00115558 -0.00084931 0.000286497 0.0005 573 0 
103 1 1 -0.00307294 -0.00100848 0.000466999 0 0 0 -8.0663e-07 -1.05709e-06 -2.42126e-07 -9.73918e-08 -1.88407e-07 -7.27759e-07 0.00191604 -0.000938977 -0.000617618 0.0005 573 0 
73 1 1 -0.00165032 -0.000985385 0.000464318 0 0 0 -9.83233e-07 -1.20714e-06 -4.17751e-07 4.95869e-08 -2.42629e-07 -6.31232e-07 0.00191843 -0.00138123 -0.000985873 0.0005 573 0 
231 1 1 -0.000730186 -0.00142157 0.000491682 0 0 0 -8.74102e-07 -1.36068e-06 -4.31561e-07 -3.10006e-08 -4.20528e-07 -3.48412e-07 0.00205273 -0.00213687 -2.39083e-05 0.0005 573 0 