ITEM: TIMESTEP
1700000
ITEM: NUMBER OF ENTRIES
22480
ITEM: BOX BOUNDS mm pp mm
-0.0125 0.0125
-0.0075 0.0075
0 0.015
ITEM: ENTRIES c_fc[1] c_fc[2] c_fc[3] c_fc[4] c_fc[5] c_fc[6] c_fc[7] c_fc[8] c_fc[9] c_fc[10] c_fc[11] c_fc[12] c_fc[13] c_fc[14] 
-0.0106152 -0.00689623 0.000448423 -0.011174 0.00729842 0.000469453 1274 568 1 46.8519 61.7715 -5.44276 3.04634e-08 0 
-0.0106152 -0.00689623 0.000448423 -0.0102077 -0.00599759 0.000480635 1274 947 0 -10.4748 -39.8813 -1.65673 1.98811e-08 0 
-0.0106152 -0.00689623 0.000448423 -0.0111218 -0.00651268 0.00116539 1274 559 0 111.33 -124.773 -180.187 6.4608e-08 0 
-0.0106152 -0.00689623 0.000448423 -0.0102635 -0.00744806 0.00113178 1274 951 0 -138.451 169.215 -281.458 8.22863e-08 0 
-0.00943259 -0.00691419 0.00045966 -0.00936478 0.00713114 0.000469462 1422 1295 1 -11.9097 250.938 -4.80623 6.58999e-08 0 
-0.00943259 -0.00691419 0.00045966 -0.00887092 -0.00612276 0.000483293 1422 1637 0 -74.2745 -120.766 1.04721 4.52423e-08 0 
-0.00943259 -0.00691419 0.00045966 -0.00932779 -0.00731757 0.00136526 1422 1240 0 -1.25507 2.21691 -4.23563 4.85708e-09 0 
-0.00943259 -0.00691419 0.00045966 -0.00979188 -0.00648362 0.00122002 1422 95 0 116.486 -149.821 -316.233 8.43295e-08 0 
-0.00719907 -0.00693968 0.000469923 -0.00788784 -0.00621545 0.000458423 1497 1203 0 0.217089 -0.210393 0.00113978 7.61348e-10 0 
-0.00719907 -0.00693968 0.000469923 -0.00741203 -0.00715503 0.0013834 1497 1077 0 23.7751 24.3764 -206.309 5.79946e-08 0 
-0.00719907 -0.00693968 0.000469923 -0.00687778 -0.00641013 0.00125214 1497 1585 0 -1.04536 -1.46336 -2.42729 3.52737e-09 0 
-0.00577963 -0.00671764 0.000833424 -0.00591706 0.00734576 0.000954494 597 179 1 39.8428 267.388 -62.6871 7.00896e-08 0 
-0.00577963 -0.00671764 0.000833424 -0.00507108 -0.00725713 0.000463554 597 598 0 -140.464 88.0067 99.9406 5.50592e-08 0 
-0.00577963 -0.00671764 0.000833424 -0.00645647 -0.00618988 0.000441414 597 440 0 273.357 -182.638 195.218 8.61434e-08 0 
-0.00577963 -0.00671764 0.000833424 -0.00605764 -0.00662183 0.00176625 597 1520 0 30.2187 0.690476 -87.365 3.40576e-08 0 
-0.00577963 -0.00671764 0.000833424 -0.00507057 -0.0066326 0.00149055 597 913 0 -111.456 3.05097 -92.2323 4.57065e-08 0 
-0.00577963 -0.00671764 0.000833424 -0.00545855 -0.00582563 0.00100125 597 1122 0 -91.498 -176.498 -52.8738 5.73896e-08 0 
-0.00507108 -0.00725713 0.000463554 -0.0046949 -0.00634525 0.000500694 598 687 0 -21.9374 -35.6886 -0.424184 2.00956e-08 0 
-0.00374813 -0.00662937 0.000488144 -0.00398288 -0.00728093 0.000750164 638 7346 0 6.17691 17.6267 -11.3675 9.8832e-09 0 
-0.00374813 -0.00662937 0.000488144 -0.00343759 -0.00718601 0.000854048 638 7343 0 -23.5096 29.1934 -21.2277 1.55107e-08 0 
-0.00374813 -0.00662937 0.000488144 -0.0046949 -0.00634525 0.000500694 638 687 0 33.3786 -9.23012 0.604121 1.78634e-08 0 
-0.00374813 -0.00662937 0.000488144 -0.00388308 -0.00564765 0.000462303 638 1481 0 0.424467 -23.1371 2.17932 1.36325e-08 0 
-0.00374813 -0.00662937 0.000488144 -0.00298254 -0.00599924 0.000469033 638 1162 0 -18.2577 -11.2786 -1.58297 1.29161e-08 0 
-0.00374813 -0.00662937 0.000488144 -0.00363694 -0.00686447 0.00118176 638 7344 0 0.00848498 4.75078 -20.2667 9.57468e-09 0 
-0.00398288 -0.00728093 0.000750164 -0.0042905 0.00709797 0.000485634 7346 165 1 6.6457 13.2045 8.7214 8.43893e-09 0 
-0.00398288 -0.00728093 0.000750164 -0.0039675 -0.00735889 0.0012335 7346 7345 0 -0.468786 4.42216 -20.0889 7.91142e-09 0 
-0.0027513 -0.00694246 0.000467847 -0.00324206 0.00721118 0.00047744 1033 882 1 32.2229 85.2117 6.38182 3.35588e-08 0 
-0.0027513 -0.00694246 0.000467847 -0.00178316 -0.00712903 0.000467539 1033 565 0 -46.1125 9.60241 1.52059 2.19061e-08 0 
-0.0027513 -0.00694246 0.000467847 -0.00298254 -0.00599924 0.000469033 1033 1162 0 18.5376 -138.179 -13.3467 4.46584e-08 0 
-0.0027513 -0.00694246 0.000467847 -0.00318535 -0.0067369 0.00103142 1033 7340 0 12.2786 -2.56366 -17.9384 9.90497e-09 0 
-0.0027513 -0.00694246 0.000467847 -0.0024372 -0.00727959 0.00131169 1033 1644 0 -43.7533 51.0166 -207.337 5.93838e-08 0 
-0.00343759 -0.00718601 0.000854048 -0.00324206 0.00721118 0.00047744 7343 882 1 -2.80008 28.0781 19.1526 1.32391e-08 0 
-0.00343759 -0.00718601 0.000854048 -0.00315863 -0.00719425 0.00124807 7343 7341 0 -20.7095 1.11534 -40.3803 1.32381e-08 0 
-0.00178316 -0.00712903 0.000467539 -0.00199633 0.0069894 0.000825624 565 65 1 20.1073 98.174 -48.925 3.86116e-08 0 
-0.00178316 -0.00712903 0.000467539 -0.0011098 0.00716002 0.000460367 565 151 1 -51.8119 67.4902 -0.689226 3.22668e-08 0 
-0.00178316 -0.00712903 0.000467539 -0.00199483 -0.00616838 0.000450383 565 1698 0 17.5981 -55.4547 11.1415 2.51785e-08 0 
-0.00178316 -0.00712903 0.000467539 -0.00163327 -0.00678283 0.0013522 565 1115 0 -31.4533 -78.8788 -194.047 5.8954e-08 0 
-0.000621861 -0.00699722 0.000478788 -0.0011098 0.00716002 0.000460367 560 151 1 58.5397 103.454 -9.72964 4.03159e-08 0 
-0.000621861 -0.00699722 0.000478788 -0.00109038 -0.00619883 0.000809736 560 492 0 21.9069 -51.9073 -28.5941 2.63372e-08 0 
-0.000621861 -0.00699722 0.000478788 -0.000367532 0.00728672 0.00111027 560 507 1 -5.20466 24.8895 -27.6895 1.8696e-08 0 
-0.000621861 -0.00699722 0.000478788 1.85848e-05 -0.00654652 0.0010614 560 4722 0 -65.5364 -59.0612 -57.6155 3.71192e-08 0 
0.00177014 -0.00669886 0.00051891 0.00272017 -0.00700045 0.000478277 4652 4687 0 -3.22215 1.01445 0.0488137 3.80317e-09 0 
0.00177014 -0.00669886 0.00051891 0.00158029 -0.00574309 0.000462019 4652 3531 0 13.1862 -104.189 -0.866177 3.70892e-08 0 
0.00177014 -0.00669886 0.00051891 0.00249963 -0.00605035 0.000484894 4652 5028 0 -79.7376 -61.8686 5.50996 3.62184e-08 0 
0.00177014 -0.00669886 0.00051891 0.00211105 -0.00743707 0.00109759 4652 4188 0 -0.795925 2.00328 -1.28207 3.1104e-09 0 
0.00177014 -0.00669886 0.00051891 0.00115528 -0.00638739 0.0012329 4652 4910 0 13.4864 -7.42364 -11.2084 1.18935e-08 0 
0.00272017 -0.00700045 0.000478277 0.00364815 -0.0072691 0.00059151 4687 4628 0 -116.296 45.6152 -34.9343 4.22924e-08 0 
0.00272017 -0.00700045 0.000478277 0.00249963 -0.00605035 0.000484894 4687 5028 0 29.6531 -105.295 -3.24977 3.81925e-08 0 
0.00272017 -0.00700045 0.000478277 0.00211105 -0.00743707 0.00109759 4687 4188 0 73.6195 62.8771 -88.9994 4.30387e-08 0 
0.00272017 -0.00700045 0.000478277 0.00325577 -0.00660029 0.0012203 4687 3540 0 -0.630688 -0.417247 -0.889458 1.87303e-09 0 
0.00364815 -0.0072691 0.00059151 0.00422854 -0.00649907 0.000480628 4628 3628 0 -88.3906 -108.304 32.6375 4.54733e-08 0 
0.00364815 -0.0072691 0.00059151 0.00325577 -0.00660029 0.0012203 4628 3540 0 0.823824 -1.23439 -1.24848 2.62645e-09 0 
0.00466776 -0.00734809 0.000457266 0.00524645 0.00685792 0.000475816 4134 3907 1 -33.9582 55.3597 9.5786 2.69837e-08 0 
0.00466776 -0.00734809 0.000457266 0.00551617 -0.00703878 0.000819007 4134 4428 0 -111.213 -20.9476 -62.7493 4.21556e-08 0 
0.00466776 -0.00734809 0.000457266 0.00422854 -0.00649907 0.000480628 4134 3628 0 138.456 -220.527 -3.11366 6.73113e-08 0 
0.00466776 -0.00734809 0.000457266 0.00466483 0.00709431 0.00122189 4134 4128 1 -0.814317 189.295 -297.236 8.20216e-08 0 
0.00551617 -0.00703878 0.000819007 0.00602642 -0.006298 0.000451684 4428 5022 0 -51.2417 -108.557 67.8814 4.39579e-08 0 
0.00551617 -0.00703878 0.000819007 0.00484873 -0.00699948 0.00151585 4428 4828 0 135.435 9.68715 -119.752 5.29289e-08 0 
0.00551617 -0.00703878 0.000819007 0.0062266 -0.00744395 0.00136074 4428 3821 0 -46.2263 29.3331 -51.6892 2.95691e-08 0 
0.00551617 -0.00703878 0.000819007 0.00585584 -0.0063343 0.0014012 4428 4107 0 -44.2245 -92.043 -50.185 3.87852e-08 0 
0.00668385 -0.00697662 0.00062512 0.0075296 -0.00657517 0.000807976 4215 3792 0 -268.047 -78.726 -49.2055 7.07683e-08 0 
0.00668385 -0.00697662 0.00062512 0.00602642 -0.006298 0.000451684 4215 5022 0 143.839 -160.836 49.6962 6.06222e-08 0 
0.00668385 -0.00697662 0.00062512 0.0062266 -0.00744395 0.00136074 4215 3821 0 17.0152 32.7569 -43.9603 2.46572e-08 0 
0.0075296 -0.00657517 0.000807976 0.00839255 -0.00676033 0.000461047 3792 5036 0 -305.463 20.5563 137.675 7.90654e-08 0 
0.0075296 -0.00657517 0.000807976 0.00704314 -0.00583071 0.000456007 3792 5017 0 95.6103 -206.053 131.507 6.69601e-08 0 
0.0075296 -0.00657517 0.000807976 0.00737825 -0.00736117 0.00132681 3792 4740 0 28.4305 262.332 -109.513 7.07704e-08 0 
0.0075296 -0.00657517 0.000807976 0.00783108 -0.00619429 0.00163033 3792 3468 0 -86.6244 -155.561 -208.874 6.89459e-08 0 
0.00839255 -0.00676033 0.000461047 0.00913462 -0.00741482 0.000485967 5036 4111 0 -22.6965 18.4235 -3.75322 1.59926e-08 0 
0.00839255 -0.00676033 0.000461047 0.00890656 -0.00595905 0.000478991 5036 3622 0 -209.734 -217.276 -6.27981 7.33662e-08 0 
0.00839255 -0.00676033 0.000461047 0.00830976 0.00747245 0.00103796 5036 4200 1 -2.79191 178.686 -92.5411 5.63132e-08 0 
0.00839255 -0.00676033 0.000461047 0.0086559 -0.00667899 0.00140246 5036 4451 0 -34.0785 -8.37318 -67.3979 2.96716e-08 0 
0.00913462 -0.00741482 0.000485967 0.00949102 -0.00661056 0.000921948 4111 4352 0 -26.1833 -55.6573 -32.3437 2.83238e-08 0 
0.00913462 -0.00741482 0.000485967 0.0091332 0.00684996 0.00113629 4111 3807 1 0.15885 61.4461 -37.4074 2.86859e-08 0 
0.00949102 -0.00661056 0.000921948 0.0102988 -0.00662824 0.000447993 4352 4513 0 -344.854 23.204 301.511 9.62468e-08 0 
0.00949102 -0.00661056 0.000921948 0.00890656 -0.00595905 0.000478991 4352 3622 0 49.5873 -38.8251 42.2383 2.96395e-08 0 
0.00949102 -0.00661056 0.000921948 0.0086559 -0.00667899 0.00140246 4352 4451 0 171.792 7.54828 -58.2372 5.26223e-08 0 
0.00949102 -0.00661056 0.000921948 0.00956122 -0.00687974 0.00183597 4352 3702 0 4.23662 114.418 -245.011 6.84613e-08 0 
0.00949102 -0.00661056 0.000921948 0.00916895 -0.00584699 0.00141361 4352 4359 0 93.0552 -162.003 -72.8445 5.61617e-08 0 
0.0102988 -0.00662824 0.000447993 0.0112112 -0.00632681 0.000467302 4513 3913 0 -209.297 -56.9204 -20.9701 5.98915e-08 0 
0.0102988 -0.00662824 0.000447993 0.010421 -0.00679689 0.00139578 4513 3478 0 -35.648 3.62831 -142.351 4.5818e-08 0 
0.0111999 -0.00736644 0.000480785 0.012003 0.00704725 0.000476858 4897 4824 1 -8.34838 8.50424 0.468368 8.72292e-09 0 
0.0111999 -0.00736644 0.000480785 0.0120297 -0.00684163 0.000489767 4897 4640 0 -53.2799 -44.3729 3.45742 2.81223e-08 0 
0.0111999 -0.00736644 0.000480785 0.0113767 -0.00683263 0.00127186 4897 4242 0 -32.8816 -63.1916 -125.11 4.55179e-08 0 
0.0120297 -0.00684163 0.000489767 0.0112112 -0.00632681 0.000467302 4640 3913 0 150.756 -76.7308 -16.2606 5.06674e-08 0 
-0.0111981 -0.00583005 0.000473941 -0.010593 -0.00524298 0.000978215 270 1268 0 -40.9385 -38.3414 -34.7848 2.73793e-08 0 
-0.0111981 -0.00583005 0.000473941 -0.0111218 -0.00651268 0.00116539 270 559 0 -30.4879 74.4541 -84.1992 3.93289e-08 0 
-0.0111981 -0.00583005 0.000473941 -0.0120188 -0.0057901 0.00100309 270 414 0 82.7054 -21.4453 -49.3551 3.53181e-08 0 
-0.0102077 -0.00599759 0.000480635 -0.010593 -0.00524298 0.000978215 947 1268 0 17.8244 -56.976 -28.2238 2.71193e-08 0 
-0.0102077 -0.00599759 0.000480635 -0.00979188 -0.00648362 0.00122002 947 95 0 -34.8109 36.6925 -81.2703 3.47059e-08 0 
-0.00887092 -0.00612276 0.000483293 -0.00788784 -0.00621545 0.000458423 1637 1203 0 -38.2646 1.29055 5.79895 1.91196e-08 0 
-0.00887092 -0.00612276 0.000483293 -0.00943531 -0.0053302 0.000456549 1637 1459 0 69.8193 -101.023 13.1538 4.13038e-08 0 
-0.00887092 -0.00612276 0.000483293 -0.00832099 -0.0059053 0.00125366 1637 1392 0 -91.1773 -18.5133 -104.321 4.46353e-08 0 
-0.00788784 -0.00621545 0.000458423 -0.00717682 -0.0055517 0.000546482 1203 208 0 -86.4918 -54.4413 -10.1065 3.62294e-08 0 
-0.00788784 -0.00621545 0.000458423 -0.00827146 -0.00684507 0.00109394 1203 748 0 26.6242 84.0714 -88.8835 4.12596e-08 0 
-0.00788784 -0.00621545 0.000458423 -0.00832099 -0.0059053 0.00125366 1203 1392 0 82.587 -57.006 -234.461 6.58054e-08 0 
-0.00717682 -0.0055517 0.000546482 -0.00645647 -0.00618988 0.000441414 208 440 0 -127.083 95.9719 31.0128 4.93035e-08 0 
-0.00717682 -0.0055517 0.000546482 -0.00723692 -0.0045857 0.000493982 208 1560 0 18.0773 -150.829 16.0312 4.75031e-08 0 
-0.00717682 -0.0055517 0.000546482 -0.00738928 -0.00562962 0.00150349 208 1278 0 22.5136 0.416069 -57.1505 2.58571e-08 0 
-0.00645647 -0.00618988 0.000441414 -0.00608612 -0.0053092 0.000469637 440 332 0 -138.154 -227.014 -8.58235 6.78966e-08 0 
-0.00645647 -0.00618988 0.000441414 -0.00687778 -0.00641013 0.00125214 440 1585 0 224.097 128.964 -332.654 9.16708e-08 0 
-0.0046949 -0.00634525 0.000500694 -0.00481423 -0.00536681 0.000469477 687 205 0 11.4413 -44.9187 0.179953 2.15534e-08 0 
-0.00388308 -0.00564765 0.000462303 -0.00298254 -0.00599924 0.000469033 1481 1162 0 -161.069 58.7388 -6.34674 5.13372e-08 0 
-0.00388308 -0.00564765 0.000462303 -0.00481423 -0.00536681 0.000469477 1481 205 0 123.58 -34.8707 11.5353 4.24409e-08 0 
-0.00388308 -0.00564765 0.000462303 -0.00375189 -0.00600796 0.00134832 1481 188 0 -13.08 46.8928 -177.186 5.33659e-08 0 
-0.00388308 -0.00564765 0.000462303 -0.00415174 -0.00500296 0.00113537 1481 775 0 32.2662 -84.2208 -118.717 4.64711e-08 0 
-0.00298254 -0.00599924 0.000469033 -0.00298136 -0.00503457 0.000454359 1162 242 0 11.9383 -186.588 30.981 5.43473e-08 0 
-0.00298254 -0.00599924 0.000469033 -0.00250288 -0.00632298 0.00121917 1162 1137 0 -174.479 113.871 -270.327 8.04395e-08 0 
-0.00199483 -0.00616838 0.000450383 -0.00109038 -0.00619883 0.000809736 1698 492 0 -106.299 4.72163 -59.0969 4.07705e-08 0 
-0.00199483 -0.00616838 0.000450383 -0.00148132 -0.00535254 0.000477615 1698 1153 0 -118.013 -151.282 21.3003 5.49535e-08 0 
-0.00199483 -0.00616838 0.000450383 -0.00250288 -0.00632298 0.00121917 1698 1137 0 248.135 103.973 -393.334 9.97075e-08 0 
-0.00109038 -0.00619883 0.000809736 -0.000280042 -0.00580914 0.000468403 492 518 0 -162.164 -86.1394 112.452 5.88902e-08 0 
-0.00109038 -0.00619883 0.000809736 -0.00148132 -0.00535254 0.000477615 492 1153 0 9.28288 -26.2923 11.1973 1.62147e-08 0 
-0.00109038 -0.00619883 0.000809736 -0.00163327 -0.00678283 0.0013522 492 1115 0 115.081 122.581 -90.9655 5.49464e-08 0 
-0.00109038 -0.00619883 0.000809736 -0.00172248 -0.00581969 0.00147272 492 1056 0 13.5026 -11.3535 -14.4374 1.3466e-08 0 
-0.00109038 -0.00619883 0.000809736 -0.000548791 -0.00589083 0.00155638 492 1533 0 -60.0953 -45.9811 -105.937 4.26741e-08 0 
-0.000280042 -0.00580914 0.000468403 0.00063433 -0.00615798 0.00044831 518 4354 0 -86.9009 16.0762 3.52593 3.28564e-08 0 
-0.000280042 -0.00580914 0.000468403 -0.0006406 -0.00489452 0.000468501 518 1529 0 12.403 -61.8194 -0.913034 2.62922e-08 0 
-0.000280042 -0.00580914 0.000468403 1.85848e-05 -0.00654652 0.0010614 518 4722 0 -4.87175 14.6992 -11.6189 1.21381e-08 0 
-0.000280042 -0.00580914 0.000468403 -2.74975e-05 -0.00516855 0.00115569 518 3974 0 -41.8364 -64.6212 -103.299 4.2024e-08 0 
0.00063433 -0.00615798 0.00044831 1.85848e-05 -0.00654652 0.0010614 4354 4722 0 177.805 137.939 -198.442 7.38417e-08 0 
0.00063433 -0.00615798 0.00044831 0.00115528 -0.00638739 0.0012329 4354 4910 0 -99.12 46.8212 -108.232 4.74314e-08 0 
0.00063433 -0.00615798 0.00044831 0.000878932 -0.00542252 0.00100568 4354 4345 0 -106.357 -197.9 -160.079 6.96028e-08 0 
0.00158029 -0.00574309 0.000462019 0.00249963 -0.00605035 0.000484894 3531 5028 0 -146.871 33.7595 -1.28001 4.70271e-08 0 
0.00158029 -0.00574309 0.000462019 0.00145803 -0.00476129 0.000578217 3531 3782 0 -0.0983167 -6.76359 -0.170767 5.98479e-09 0 
0.00158029 -0.00574309 0.000462019 0.00227305 -0.00519681 0.000874129 3531 5018 0 -94.0938 -51.9749 -57.3163 4.06952e-08 0 
0.00158029 -0.00574309 0.000462019 0.000878932 -0.00542252 0.00100568 3531 4345 0 274.916 -112.246 -238.312 8.62118e-08 0 
0.00249963 -0.00605035 0.000484894 0.00344767 -0.00593257 0.000487838 5028 4810 0 -270.417 9.66397 6.69474 6.85984e-08 0 
0.00249963 -0.00605035 0.000484894 0.00227305 -0.00519681 0.000874129 5028 5018 0 73.962 -152.636 -80.0112 5.3891e-08 0 
0.00344767 -0.00593257 0.000487838 0.00422854 -0.00649907 0.000480628 4810 3628 0 -163.164 94.0513 6.81877 5.44084e-08 0 
0.00344767 -0.00593257 0.000487838 0.00434194 -0.00554506 0.000474636 4810 3994 0 -96.0439 -64.7843 -2.22363 3.92322e-08 0 
0.00344767 -0.00593257 0.000487838 0.00317362 -0.00497761 0.000495617 4810 4539 0 4.11785 -14.1015 -2.03524 1.01208e-08 0 
0.00344767 -0.00593257 0.000487838 0.0038021 -0.0056694 0.00136828 4810 5031 0 -12.9204 -13.0859 -49.5406 2.35183e-08 0 
0.00422854 -0.00649907 0.000480628 0.00434194 -0.00554506 0.000474636 3628 3994 0 -59.3276 -214.786 -26.2153 6.04589e-08 0 
0.00422854 -0.00649907 0.000480628 0.00467092 -0.00607987 0.00125138 3628 3927 0 -36.9381 -29.9553 -45.3417 2.71022e-08 0 
0.00434194 -0.00554506 0.000474636 0.00529756 -0.00571046 0.000629193 3994 5099 0 -64.1424 12.1058 -21.9193 2.79029e-08 0 
0.00434194 -0.00554506 0.000474636 0.00420695 -0.00457888 0.000470853 3994 4744 0 -0.160421 -109.16 -12.6843 3.79034e-08 0 
0.00434194 -0.00554506 0.000474636 0.00467092 -0.00607987 0.00125138 3994 3927 0 -0.394054 0.612685 -0.943823 1.90043e-09 0 
0.00434194 -0.00554506 0.000474636 0.00480723 -0.00499593 0.00110344 3994 4956 0 -109.883 -188.498 -154.537 6.79834e-08 0 
0.00529756 -0.00571046 0.000629193 0.00602642 -0.006298 0.000451684 5099 5022 0 -221.824 161.947 107.618 7.2297e-08 0 
0.00529756 -0.00571046 0.000629193 0.00542533 -0.00477409 0.00043494 5099 4630 0 -24.1886 -176.502 61.1969 5.43097e-08 0 
0.00529756 -0.00571046 0.000629193 0.00620812 -0.0053439 0.00048635 5099 3813 0 -18.2107 -8.67322 4.60979 1.26548e-08 0 
0.00529756 -0.00571046 0.000629193 0.00467092 -0.00607987 0.00125138 5099 3927 0 192.306 84.062 -141.702 6.57722e-08 0 
0.00529756 -0.00571046 0.000629193 0.00480723 -0.00499593 0.00110344 5099 4956 0 23.7674 -26.1778 -14.7226 1.8937e-08 0 
0.00529756 -0.00571046 0.000629193 0.00560372 -0.00538862 0.00150942 5099 4294 0 -15.9921 -22.5498 -38.9195 2.18986e-08 0 
0.00602642 -0.006298 0.000451684 0.00620812 -0.0053439 0.00048635 5022 3813 0 -46.5131 -126.598 -14.4939 4.35638e-08 0 
0.00602642 -0.006298 0.000451684 0.00585584 -0.0063343 0.0014012 5022 4107 0 -0.514122 -1.43663 -185.308 5.3409e-08 0 
0.00704314 -0.00583071 0.000456007 0.00798432 -0.00561608 0.000472532 5017 5015 0 -171.29 -62.64 -29.1581 5.32721e-08 0 
0.00704314 -0.00583071 0.000456007 0.00620812 -0.0053439 0.00048635 5017 3813 0 155.096 -68.9134 -23.7058 5.09271e-08 0 
0.00704314 -0.00583071 0.000456007 0.00664829 -0.00577746 0.00133267 5017 3919 0 76.4144 -38.3942 -184.886 5.71156e-08 0 
0.00798432 -0.00561608 0.000472532 0.00890656 -0.00595905 0.000478991 5015 3622 0 -52.9149 22.5659 6.40696 2.4975e-08 0 
0.00798432 -0.00561608 0.000472532 0.00811812 -0.00463562 0.000476723 5015 4004 0 0.575895 -30.5608 -3.09433 1.63245e-08 0 
0.00798432 -0.00561608 0.000472532 0.00750583 -0.00534984 0.00129592 5015 4189 0 20.7318 -10.979 -24.44 1.74248e-08 0 
0.00798432 -0.00561608 0.000472532 0.00845923 -0.00520727 0.00119631 5015 3690 0 -147.573 -75.5541 -190.207 6.55716e-08 0 
0.00890656 -0.00595905 0.000478991 0.00979475 -0.0055942 0.000448021 3622 4737 0 -190.975 -114.206 16.172 6.05189e-08 0 
0.00890656 -0.00595905 0.000478991 0.00903397 -0.00498515 0.000464181 3622 4061 0 3.72015 -67.6587 -2.79772 2.75355e-08 0 
0.00890656 -0.00595905 0.000478991 0.00916895 -0.00584699 0.00141361 3622 4359 0 -19.5539 -29.0079 -92.8652 3.54007e-08 0 
0.00979475 -0.0055942 0.000448021 0.00903397 -0.00498515 0.000464181 4737 4061 0 75.4101 -88.4003 2.70505 3.92802e-08 0 
0.00979475 -0.0055942 0.000448021 0.0101714 -0.00585069 0.00127761 4737 3707 0 -180.107 109.104 -284.001 8.17895e-08 0 
0.00979475 -0.0055942 0.000448021 0.00979768 -0.00486752 0.00107205 4737 4996 0 -22.0685 -170.843 -176.76 6.48083e-08 0 
0.0112112 -0.00632681 0.000467302 0.0110743 -0.00536821 0.000491501 3913 4579 0 19.9776 -155.691 -12.2444 4.85009e-08 0 
0.0112112 -0.00632681 0.000467302 0.0113767 -0.00683263 0.00127186 3913 4242 0 -40.0658 75.4014 -169.77 5.45341e-08 0 
0.0112112 -0.00632681 0.000467302 0.0111412 -0.00588028 0.00133269 3913 5139 0 -13.0045 -49.4894 -91.8262 3.67522e-08 0 
-0.0120078 -0.00496279 0.000482183 -0.0122574 -0.00427864 0.000601133 668 7285 0 9.67008 -28.1399 -8.73611 1.25216e-08 0 
-0.0120078 -0.00496279 0.000482183 -0.0117981 -0.00428121 0.000249978 668 7290 0 -0.000742027 -0.00328195 0.00109899 2.99299e-11 0 
-0.0120078 -0.00496279 0.000482183 -0.0112829 -0.00438912 0.000798313 668 895 0 -61.4807 -67.5773 -40.7391 3.56595e-08 0 
-0.0120078 -0.00496279 0.000482183 -0.0120188 -0.0057901 0.00100309 668 414 0 12.5232 84.5785 -42.2308 3.46329e-08 0 
-0.010593 -0.00524298 0.000978215 -0.010375 -0.00444056 0.000471463 1268 1100 0 -14.2056 -110.651 49.8058 4.0678e-08 0 
-0.010593 -0.00524298 0.000978215 -0.0104803 -0.00596197 0.00164037 1268 1362 0 -3.66379 39.4603 -42.322 2.50664e-08 0 
-0.010593 -0.00524298 0.000978215 -0.011202 -0.00498064 0.00171244 1268 1524 0 18.9985 -13.0551 -21.4501 1.66313e-08 0 
-0.010593 -0.00524298 0.000978215 -0.0101293 -0.00508851 0.00183256 1268 1515 0 -24.2433 -11.0718 -49.0423 2.44861e-08 0 
-0.00943531 -0.0053302 0.000456549 -0.00928221 -0.00568177 0.00134847 1459 1013 0 -19.0223 69.8306 -122.463 4.51138e-08 0 
-0.00943531 -0.0053302 0.000456549 -0.00967231 -0.00467861 0.00110646 1459 783 0 81.7959 -200.9 -226.831 7.60889e-08 0 
-0.0082646 -0.00525545 0.000498657 -0.0082131 -0.00426042 0.000439353 475 1298 0 -0.140802 -2.28668 0.176285 2.94242e-09 0 
-0.0082646 -0.00525545 0.000498657 -0.00832099 -0.0059053 0.00125366 475 1392 0 0.149597 2.11999 -2.14563 3.52474e-09 0 
-0.00723692 -0.0045857 0.000493982 -0.00741481 -0.00363257 0.000477737 1560 595 0 18.8453 -148.179 -2.65084 4.68353e-08 0 
-0.00608612 -0.0053092 0.000469637 -0.00557149 -0.00450038 0.000477202 332 1556 0 -127.178 -200.562 -15.6995 6.35525e-08 0 
-0.00608612 -0.0053092 0.000469637 -0.00545855 -0.00582563 0.00100125 332 1122 0 -105.209 54.365 -76.1025 4.46413e-08 0 
-0.00608612 -0.0053092 0.000469637 -0.00645062 -0.00469839 0.00112249 332 805 0 86.2791 -97.8662 -128.505 5.32681e-08 0 
-0.00557149 -0.00450038 0.000477202 -0.00640803 -0.00399081 0.000469036 1556 682 0 76.591 -33.348 -3.92915 3.17874e-08 0 
-0.00557149 -0.00450038 0.000477202 -0.00549285 -0.00351869 0.000462782 1556 1164 0 -10.4581 -51.4837 6.77918 2.34637e-08 0 
-0.00557149 -0.00450038 0.000477202 -0.00461778 -0.00442051 0.000483311 1556 594 0 -251.865 -8.8459 5.97849 6.59844e-08 0 
-0.00557149 -0.00450038 0.000477202 -0.00571673 -0.00404871 0.00131598 1556 1620 0 46.9197 -101.738 -162.277 5.60415e-08 0 
-0.00481423 -0.00536681 0.000469477 -0.00461778 -0.00442051 0.000483311 205 594 0 -33.1401 -169.609 -8.28092 5.16238e-08 0 
-0.00481423 -0.00536681 0.000469477 -0.00545855 -0.00582563 0.00100125 205 1122 0 183.301 114.963 -193.401 7.19027e-08 0 
-0.00298136 -0.00503457 0.000454359 -0.00366289 -0.00436274 0.000474285 242 1441 0 169.966 -183.325 -42.007 6.57927e-08 0 
-0.00298136 -0.00503457 0.000454359 -0.00244669 -0.00421861 0.000477009 242 1623 0 -70.4771 -81.2035 -2.65386 3.7566e-08 0 
-0.00298136 -0.00503457 0.000454359 -0.00295276 -0.00545343 0.00131036 242 661 0 -41.5309 140.544 -246.746 7.14731e-08 0 
-0.00298136 -0.00503457 0.000454359 -0.00306529 -0.0044686 0.00124738 242 993 0 9.09644 -64.5658 -67.8032 3.43723e-08 0 
-0.00148132 -0.00535254 0.000477615 -0.0006406 -0.00489452 0.000468501 1153 1529 0 -216.546 -121.922 5.21241 6.54435e-08 0 
-0.00148132 -0.00535254 0.000477615 -0.0021595 -0.00495317 0.00103946 1153 816 0 125.403 -47.7545 -106.735 5.09918e-08 0 
-0.0006406 -0.00489452 0.000468501 -0.00145937 -0.0043504 0.000478457 1529 279 0 49.9459 -36.8954 5.1543 2.6265e-08 0 
-0.0006406 -0.00489452 0.000468501 -0.000232702 -0.00403579 0.000564359 1529 1613 0 -99.0451 -242.018 -57.7558 6.83375e-08 0 
-0.0006406 -0.00489452 0.000468501 -2.74975e-05 -0.00516855 0.00115569 1529 3974 0 -150.486 69.8562 -144.499 6.03101e-08 0 
-0.0006406 -0.00489452 0.000468501 -0.000639382 -0.00442949 0.00134365 1529 1603 0 -3.07375 -9.24477 -22.3124 1.40291e-08 0 
0.00145803 -0.00476129 0.000578217 0.00227305 -0.00519681 0.000874129 3782 5018 0 -133.724 59.3544 -19.0283 4.59461e-08 0 
0.00145803 -0.00476129 0.000578217 0.000713559 -0.00413953 0.000472309 3782 3802 0 76.0079 -72.037 28.6634 3.76653e-08 0 
0.00145803 -0.00476129 0.000578217 0.00160792 -0.00379618 0.000468365 3782 4371 0 -7.87125 -61.5954 16.9755 2.67165e-08 0 
0.00145803 -0.00476129 0.000578217 0.000878932 -0.00542252 0.00100568 3782 4345 0 65.4892 67.5145 -26.7813 3.51112e-08 0 
0.00227305 -0.00519681 0.000874129 0.00239017 -0.00436167 0.000453757 5018 4346 0 -22.965 -331.931 213.877 8.80592e-08 0 
0.00227305 -0.00519681 0.000874129 0.00197026 -0.00589571 0.0014625 5018 4769 0 85.8596 136.068 -130.861 5.78614e-08 0 
0.00227305 -0.00519681 0.000874129 0.00294733 -0.00524396 0.00154046 5018 5030 0 -216.751 50.6064 -239.372 7.78561e-08 0 
0.00317362 -0.00497761 0.000495617 0.00239017 -0.00436167 0.000453757 4539 4346 0 3.05711 -1.92525 0.628019 3.98043e-09 0 
0.00317362 -0.00497761 0.000495617 0.00306047 -0.00434606 0.00125252 4539 4637 0 1.61665 -12.9338 -14.2764 1.21269e-08 0 
0.00420695 -0.00457888 0.000470853 0.00494765 -0.00391491 0.000487776 4744 4068 0 -8.50247 -6.09544 0.251917 8.03593e-09 0 
0.00420695 -0.00457888 0.000470853 0.00480723 -0.00499593 0.00110344 4744 4956 0 -112.559 99.3539 -90.9552 5.15021e-08 0 
0.00420695 -0.00457888 0.000470853 0.00395975 -0.00383387 0.00101598 4744 3548 0 109.477 -213.768 -121.117 6.80805e-08 0 
0.00542533 -0.00477409 0.00043494 0.00620812 -0.0053439 0.00048635 4630 3813 0 -123.327 82.776 -35.1605 4.70459e-08 0 
0.00542533 -0.00477409 0.00043494 0.00494765 -0.00391491 0.000487776 4630 4068 0 19.5426 -51.3401 -9.87374 2.42213e-08 0 
0.00542533 -0.00477409 0.00043494 0.00631145 -0.00436222 0.000460087 4630 3961 0 -82.58 -49.3476 3.17635 3.49626e-08 0 
0.00542533 -0.00477409 0.00043494 0.00480723 -0.00499593 0.00110344 4630 4956 0 253.699 67.7956 -368.808 9.57095e-08 0 
0.00542533 -0.00477409 0.00043494 0.00565978 -0.00420064 0.00116493 4630 4746 0 -49.108 -150.045 -192.218 6.54303e-08 0 
0.00620812 -0.0053439 0.00048635 0.00631145 -0.00436222 0.000460087 3813 3961 0 -8.37928 -39.1436 -0.621359 1.95872e-08 0 
0.00620812 -0.0053439 0.00048635 0.00640259 -0.00484455 0.00129285 3813 3745 0 -31.0692 -84.4054 -131.946 4.89967e-08 0 
0.00717828 -0.00469893 0.000664387 0.00811812 -0.00463562 0.000476723 3762 4004 0 -213.38 -8.05788 66.5099 6.08531e-08 0 
0.00717828 -0.00469893 0.000664387 0.00631145 -0.00436222 0.000460087 3762 3961 0 271.497 -83.6108 92.5576 7.34335e-08 0 
0.00717828 -0.00469893 0.000664387 0.00718141 -0.00371776 0.000484763 3762 3617 0 -0.157628 -3.54039 0.490012 3.94726e-09 0 
0.00717828 -0.00469893 0.000664387 0.00750583 -0.00534984 0.00129592 3762 4189 0 -57.5306 149.132 -108.235 5.51197e-08 0 
0.00717828 -0.00469893 0.000664387 0.00715631 -0.00405767 0.00140647 3762 4341 0 -0.429431 -53.9227 -51.3227 2.95493e-08 0 
0.00811812 -0.00463562 0.000476723 0.00903397 -0.00498515 0.000464181 4004 4061 0 -72.6094 27.9883 3.92253 3.05415e-08 0 
0.00811812 -0.00463562 0.000476723 0.00860672 -0.00379727 0.000459738 4004 4702 0 -80.0284 -119.848 -23.8346 4.56614e-08 0 
0.00811812 -0.00463562 0.000476723 0.00845923 -0.00520727 0.00119631 4004 3690 0 -39.5521 36.763 -58.7856 3.06691e-08 0 
0.00903397 -0.00498515 0.000464181 0.00953089 -0.00414591 0.000470268 4061 4965 0 -43.5964 -101.489 -7.54156 3.826e-08 0 
0.00903397 -0.00498515 0.000464181 0.00845923 -0.00520727 0.00119631 4061 3690 0 128.036 25.2385 -222.59 6.62202e-08 0 
0.00903397 -0.00498515 0.000464181 0.00979768 -0.00486752 0.00107205 4061 4996 0 -46.9514 -19.5733 -37.3146 2.62429e-08 0 
0.0110743 -0.00536821 0.000491501 0.0105127 -0.00458403 0.000448353 4579 5113 0 92.8012 -155.567 18.2451 5.32228e-08 0 
0.0110743 -0.00536821 0.000491501 0.0120158 -0.0053491 0.000769608 4579 3901 0 -66.32 -13.9904 -18.3974 2.82198e-08 0 
0.0110743 -0.00536821 0.000491501 0.0111412 -0.00588028 0.00133269 4579 5139 0 -10.8993 20.9485 -35.2507 2.01932e-08 0 
0.0110743 -0.00536821 0.000491501 0.0107178 -0.00502508 0.00135467 4579 3496 0 5.48071 -3.36544 -8.19719 7.95452e-09 0 
0.0105127 -0.00458403 0.000448353 0.0111463 -0.00383118 0.000493773 5113 4565 0 -40.9383 -32.9147 -2.17069 2.32676e-08 0 
0.0105127 -0.00458403 0.000448353 0.00979768 -0.00486752 0.00107205 5113 4996 0 22.1602 5.09247 -15.5973 1.52555e-08 0 
0.0105127 -0.00458403 0.000448353 0.0105138 -0.00409737 0.00124697 5113 3696 0 55.4667 -185.177 -433.682 9.8472e-08 0 
0.0120158 -0.0053491 0.000769608 0.0119937 -0.00439587 0.000498072 3901 4329 0 -0.111823 -22.0483 5.14957 1.34666e-08 0 
0.0120158 -0.0053491 0.000769608 0.0116683 -0.00506703 0.00165258 3901 4511 0 13.0075 -5.29255 -25.2918 1.57525e-08 0 
-0.0122574 -0.00427864 0.000601133 -0.0122518 -0.00394863 0.000241157 7285 7287 0 0.965174 -13.9784 21.1962 9.01907e-09 0 
-0.0122574 -0.00427864 0.000601133 -0.0120431 -0.00398827 0.00124343 7285 502 0 -9.23904 -13.5937 -31.2386 1.37009e-08 0 
-0.0122518 -0.00394863 0.000241157 -0.0122642 -0.00348465 0.000409971 7287 7291 0 -0.432834 -9.18864 -2.67627 4.76282e-09 0 
-0.0117768 -0.00388214 0.0005504 -0.0117981 -0.00428121 0.000249978 7288 7290 0 0.000465702 0.00301171 0.00190677 2.48888e-11 0 
-0.0117768 -0.00388214 0.0005504 -0.0112829 -0.00438912 0.000798313 7288 895 0 -0.0028796 0.00259437 -0.00167919 3.36329e-11 0 
-0.0117768 -0.00388214 0.0005504 -0.0118114 -0.00349003 0.000242167 7288 7286 0 0.000790397 -0.00561837 0.00310867 3.66467e-11 0 
-0.0117768 -0.00388214 0.0005504 -0.0120431 -0.00398827 0.00124343 7288 502 0 0.00162354 1.22628e-05 -0.00333404 3.06529e-11 0 
-0.0112829 -0.00438912 0.000798313 -0.010375 -0.00444056 0.000471463 895 1100 0 -166.531 28.7499 50.1464 5.20244e-08 0 
-0.0112829 -0.00438912 0.000798313 -0.0111241 -0.00346108 0.000496244 895 576 0 -4.94322 -30.2163 14.2798 1.74861e-08 0 
-0.0112829 -0.00438912 0.000798313 -0.0120431 -0.00398827 0.00124343 895 502 0 119.9 -61.25 -94.9706 4.971e-08 0 