ITEM: TIMESTEP
2100000
ITEM: NUMBER OF ENTRIES
22753
ITEM: BOX BOUNDS mm pp mm
-0.0125 0.0125
-0.0075 0.0075
0 0.015
ITEM: ENTRIES c_fc[1] c_fc[2] c_fc[3] c_fc[4] c_fc[5] c_fc[6] c_fc[7] c_fc[8] c_fc[9] c_fc[10] c_fc[11] c_fc[12] c_fc[13] c_fc[14] 
-0.0105973 -0.00691136 0.000450665 -0.0111739 0.00728927 0.000466961 1274 568 1 29.7922 37.7537 1.41709 2.21888e-08 0 
-0.0105973 -0.00691136 0.000450665 -0.0101985 -0.00599878 0.000487367 1274 947 0 -3.1039 -4.88974 0.401309 5.39151e-09 0 
-0.0105973 -0.00691136 0.000450665 -0.0110941 -0.00652126 0.00116627 1274 559 0 131.146 -144.149 -196.528 6.98252e-08 0 
-0.0105973 -0.00691136 0.000450665 -0.0102607 -0.00747119 0.00113953 1274 951 0 -139.883 163.197 -243.796 7.75748e-08 0 
-0.00940612 -0.00691088 0.000463557 -0.00934127 0.00712633 0.000470822 1422 1295 1 11.8483 186.587 1.88451 5.40284e-08 0 
-0.00940612 -0.00691088 0.000463557 -0.0088579 -0.00611711 0.00047741 1422 1637 0 -103.03 -156.224 7.11453 5.43382e-08 0 
-0.00940612 -0.00691088 0.000463557 -0.00932484 -0.00734164 0.00135314 1422 1240 0 -5.58782 9.30233 -18.7468 1.29503e-08 0 
-0.00940612 -0.00691088 0.000463557 -0.00977247 -0.00648435 0.00123149 1422 95 0 115.783 -85.6885 -268.657 7.39353e-08 0 
-0.00720442 -0.00695887 0.000469664 -0.00787553 -0.00623553 0.000458324 1497 1203 0 25.1108 -35.4245 -5.25225 2.06203e-08 0 
-0.00720442 -0.00695887 0.000469664 -0.0074328 -0.00716261 0.00138267 1497 1077 0 14.7879 39.1405 -200.46 5.71304e-08 0 
-0.00720442 -0.00695887 0.000469664 -0.00689215 -0.00642223 0.00124852 1497 1585 0 -2.50948 -3.3013 -5.73102 6.2053e-09 0 
-0.00579007 -0.0067028 0.000846249 -0.00590433 0.00735338 0.000949386 597 179 1 28.7482 252.691 -54.0016 6.71707e-08 0 
-0.00579007 -0.0067028 0.000846249 -0.00506539 -0.0072233 0.000464971 597 598 0 -108.088 62.8373 77.7019 4.59884e-08 0 
-0.00579007 -0.0067028 0.000846249 -0.00646975 -0.00618772 0.000441568 597 440 0 275.255 -176.721 188.659 8.55781e-08 0 
-0.00579007 -0.0067028 0.000846249 -0.00608057 -0.00659456 0.00178059 597 1520 0 23.2746 -4.32758 -50.1678 2.42623e-08 0 
-0.00579007 -0.0067028 0.000846249 -0.00505665 -0.00662891 0.00146773 597 913 0 -153.405 17.9494 -118.922 5.52845e-08 0 
-0.00579007 -0.0067028 0.000846249 -0.00547414 -0.00580519 0.00101741 597 1122 0 -65.784 -152.429 -43.2697 5.1185e-08 0 
-0.00506539 -0.0072233 0.000464971 -0.00462704 -0.00634136 0.000497366 598 687 0 -25.4787 -43.1029 0.51859 2.27589e-08 0 
-0.00370289 -0.00668757 0.000560366 -0.00274835 -0.00694317 0.000469389 638 1033 0 -17.8063 5.33606 4.70578 1.19708e-08 0 
-0.00370289 -0.00668757 0.000560366 -0.00462704 -0.00634136 0.000497366 638 687 0 32.8266 -6.52556 3.42405 1.737e-08 0 
-0.00370289 -0.00668757 0.000560366 -0.00298846 -0.00600373 0.000470611 638 1162 0 -13.891 -9.16071 1.632 1.09033e-08 0 
-0.00370289 -0.00668757 0.000560366 -0.00345092 -0.00736972 0.00123763 638 393 0 -1.12935 10.3502 -9.76181 9.816e-09 0 
-0.00274835 -0.00694317 0.000469389 -0.00321375 0.00719474 0.000447447 1033 882 1 27.1095 76.9374 -6.98302 3.11963e-08 0 
-0.00274835 -0.00694317 0.000469389 -0.00178538 -0.00712539 0.000470042 1033 565 0 -80.6326 2.54178 -5.04749 3.10165e-08 0 
-0.00274835 -0.00694317 0.000469389 -0.00298846 -0.00600373 0.000470611 1033 1162 0 27.5518 -147.438 -2.4993 4.69622e-08 0 
-0.00274835 -0.00694317 0.000469389 -0.00244488 -0.00726622 0.00132351 1033 1644 0 -26.7687 76.6739 -195.088 5.81417e-08 0 
-0.00178538 -0.00712539 0.000470042 -0.0019912 0.00699778 0.000831224 565 65 1 22.592 134.756 -47.3928 4.5827e-08 0 
-0.00178538 -0.00712539 0.000470042 -0.00110115 0.00717466 0.000457804 565 151 1 -49.9527 72.5028 -5.77927 3.27837e-08 0 
-0.00178538 -0.00712539 0.000470042 -0.00200149 -0.00616753 0.000444574 565 1698 0 12.8117 -65.3363 11.7023 2.7612e-08 0 
-0.00178538 -0.00712539 0.000470042 -0.0016326 -0.00677168 0.00135245 565 1115 0 -54.1031 -101.183 -171.078 5.7257e-08 0 
-0.000578637 -0.00697838 0.000482024 -0.00110115 0.00717466 0.000457804 560 151 1 4.92896 7.11653 -0.246422 7.1044e-09 0 
-0.000578637 -0.00697838 0.000482024 -0.000261017 -0.00657944 0.000924286 560 7918 0 -2.86061e-07 -2.11733e-07 -3.32827e-07 6.34045e-14 0 
-0.000578637 -0.00697838 0.000482024 -0.00110076 -0.0062023 0.000795341 560 492 0 17.435 -40.0536 -12.3318 2.11478e-08 0 
-0.000578637 -0.00697838 0.000482024 -0.000351975 -0.00642167 0.000174967 560 7931 0 -0.000856815 -0.00307353 0.00170868 2.55766e-11 0 
-0.000578637 -0.00697838 0.000482024 -0.00036716 0.00728544 0.00109378 560 507 1 -24.9083 50.358 -56.4714 3.06901e-08 0 
-0.000578637 -0.00697838 0.000482024 -0.000695373 -0.00688621 0.00146087 560 970 0 5.21203 -2.8088 -27.395 1.55059e-08 0 
0.000370546 -0.00746407 0.000490888 0.000724669 0.00660225 0.000481948 4612 4353 1 -0.501349 1.35447 -0.100092 2.15891e-09 0 
0.000370546 -0.00746407 0.000490888 0.000403147 -0.00682511 0.000690618 4612 7923 0 -1.02103 -6.25433 -2.28603 3.84737e-09 0 
0.000370546 -0.00746407 0.000490888 -0.00036716 0.00728544 0.00109378 4612 507 1 42.6828 9.8529 -27.7292 2.32228e-08 0 
0.000370546 -0.00746407 0.000490888 0.000558192 -0.00713816 0.00104196 4612 7913 0 -3.1716 -7.5562 -11.5675 6.30125e-09 0 
0.000403147 -0.00682511 0.000690618 0.000465257 -0.00662418 0.000964895 7923 7924 0 -0.349937 -2.87349 -3.91496 2.38888e-09 0 
0.000403147 -0.00682511 0.000690618 0.000593112 -0.00622272 0.000461945 7923 4354 0 -0.671075 -3.38084 1.6289 2.63334e-09 0 
0.000465257 -0.00662418 0.000964895 0.000593112 -0.00622272 0.000461945 7924 4354 0 -9.42288 -33.6937 39.7492 1.4907e-08 0 
0.000465257 -0.00662418 0.000964895 0.000408197 -0.0068648 0.00117782 7924 7912 0 11.4845 45.4246 -39.0192 1.25731e-08 0 
0.000465257 -0.00662418 0.000964895 0.000501586 -0.00632058 0.00111489 7924 7916 0 -2.41164 -14.6043 -4.64502 5.11282e-09 0 
0.000146801 -0.00657968 0.000821133 0.000593112 -0.00622272 0.000461945 7933 4354 0 -0.0967344 -0.0210488 -0.141117 5.63987e-14 0 
0.00174691 -0.00674752 0.000494362 0.00268888 -0.00706924 0.000481764 4652 4687 0 -7.62616 4.30566 -0.062534 7.0884e-09 0 
0.00174691 -0.00674752 0.000494362 0.00157065 -0.00578911 0.000462847 4652 3531 0 7.96345 -112.163 5.48742 3.87838e-08 0 
0.00174691 -0.00674752 0.000494362 0.00249227 -0.00610641 0.000489324 4652 5028 0 -41.6719 -46.2434 7.63603 2.62154e-08 0 
0.00174691 -0.00674752 0.000494362 0.0020495 -0.00745393 0.00110941 4652 4188 0 -23.7664 34.1691 -38.0911 2.44576e-08 0 
0.00174691 -0.00674752 0.000494362 0.00115785 -0.00641672 0.0012229 4652 4910 0 9.41466 -2.73768 -11.0149 1.00585e-08 0 
0.00268888 -0.00706924 0.000481764 0.00364302 -0.00729694 0.000524631 4687 4628 0 -67.2635 13.2506 -14.7687 2.82217e-08 0 
0.00268888 -0.00706924 0.000481764 0.00249227 -0.00610641 0.000489324 4687 5028 0 1.41871 -65.2206 -4.55264 2.6893e-08 0 
0.00268888 -0.00706924 0.000481764 0.0020495 -0.00745393 0.00110941 4687 4188 0 60.5041 52.6472 -79.2921 3.86956e-08 0 
0.00364302 -0.00729694 0.000524631 0.00421787 -0.00650632 0.000481449 4628 3628 0 -59.4099 -66.4499 17.3465 3.34477e-08 0 
0.00421787 -0.00650632 0.000481449 0.00466212 -0.00735112 0.000453175 3628 4134 0 -139.591 232.862 0.79511 6.92387e-08 0 
0.00421787 -0.00650632 0.000481449 0.00344065 -0.00593234 0.000486865 3628 4810 0 150.73 -91.6656 -9.29315 5.21798e-08 0 
0.00421787 -0.00650632 0.000481449 0.00434937 -0.00555302 0.000476119 3628 3994 0 -53.7548 -201.515 -30.963 5.80411e-08 0 
0.00421787 -0.00650632 0.000481449 0.00466629 -0.00608504 0.00125037 3628 3927 0 -17.4174 -24.7676 -44.3005 2.3721e-08 0 
0.00466212 -0.00735112 0.000453175 0.00525434 0.0068539 0.000476213 4134 3907 1 -15.1398 16.0052 2.47817 1.31519e-08 0 
0.00466212 -0.00735112 0.000453175 0.00550401 -0.00702597 0.000812453 4134 4428 0 -123.54 -27.1074 -56.3667 4.43102e-08 0 
0.00466212 -0.00735112 0.000453175 0.00467364 0.00709709 0.00121261 4134 4128 1 -5.69693 245.874 -350.787 9.31827e-08 0 
0.00550401 -0.00702597 0.000812453 0.00609706 -0.00632617 0.000460808 4428 5022 0 -30.0962 -55.3827 23.8875 2.74304e-08 0 
0.00550401 -0.00702597 0.000812453 0.00483848 -0.00700189 0.00152232 4428 4828 0 95.8189 -1.63415 -78.8205 4.12894e-08 0 
0.00550401 -0.00702597 0.000812453 0.00623327 -0.00742001 0.00134979 4428 3821 0 -27.3298 21.2538 -17.1278 1.89939e-08 0 
0.00550401 -0.00702597 0.000812453 0.00588511 -0.00634786 0.00139369 4428 4107 0 -51.6085 -116.33 -63.495 4.4841e-08 0 
0.00679824 -0.00701917 0.000555159 0.00765857 -0.00657682 0.000707345 4215 3792 0 -74.4982 -37.7293 -12.1357 3.22052e-08 0 
0.00679824 -0.00701917 0.000555159 0.00609706 -0.00632617 0.000460808 4215 5022 0 17.8556 -19.899 2.69109 1.50845e-08 0 
0.00765857 -0.00657682 0.000707345 0.00858871 -0.00670757 0.000468499 3792 5036 0 -144.516 18.3622 48.4289 4.76671e-08 0 
0.00765857 -0.00657682 0.000707345 0.00703192 -0.00587245 0.000461436 3792 5017 0 64.1644 -90.0221 40.144 3.98277e-08 0 
0.00765857 -0.00657682 0.000707345 0.00798247 -0.00566121 0.000473801 3792 5015 0 -0.318853 -0.937872 0.298698 1.72771e-09 0 
0.00765857 -0.00657682 0.000707345 0.00825554 -0.00640872 0.000973782 3792 8226 0 -0.000983346 0.00085494 0.00165471 9.42674e-14 0 
0.00765857 -0.00657682 0.000707345 0.00740425 -0.00731728 0.0012985 3792 4740 0 11.3889 61.6 -40.5437 2.95011e-08 0 
0.00765857 -0.00657682 0.000707345 0.00782922 -0.00621031 0.00160272 3792 3468 0 -5.21541 -26.7308 -60.4639 2.73795e-08 0 
0.00858871 -0.00670757 0.000468499 0.00921658 -0.00746046 0.00048141 5036 4111 0 -48.3205 60.5662 -4.44392 3.04516e-08 0 
0.00858871 -0.00670757 0.000468499 0.0083124 -0.00616734 0.000174416 5036 8211 0 0.166537 -0.29787 0.157344 5.67659e-10 0 
0.00858871 -0.00670757 0.000468499 0.00825554 -0.00640872 0.000973782 5036 8226 0 -5.72216e-06 2.90393e-06 9.16237e-06 1.8759e-14 0 
0.00858871 -0.00670757 0.000468499 0.00858529 -0.0060326 0.00046358 5036 8216 0 5.29464e-05 -0.000650183 -0.000115317 1.17602e-12 0 
0.00858871 -0.00670757 0.000468499 0.00877939 -0.00614062 0.000171707 5036 8220 0 -3.79957 -10.9339 5.02428 5.84164e-09 0 
0.00858871 -0.00670757 0.000468499 0.00868134 -0.00667163 0.00142896 5036 4451 0 -50.7213 -18.8205 -176.042 5.31321e-08 0 
0.00921658 -0.00746046 0.00048141 0.00948922 -0.00661968 0.000906951 4111 4352 0 -19.9142 -63.1203 -33.6067 2.95891e-08 0 
0.00921658 -0.00746046 0.00048141 0.0091453 0.00684094 0.00115588 4111 3807 1 2.32097 99.9146 -70.7857 4.08137e-08 0 
0.00948922 -0.00661968 0.000906951 0.0103377 -0.00655832 0.000474114 4352 4513 0 -226.369 -15.084 160.13 6.98756e-08 0 
0.00948922 -0.00661968 0.000906951 0.00999848 -0.00706269 0.000911811 4352 7822 0 0.012568 0.0142974 -0.0136437 8.3733e-14 0 
0.00948922 -0.00661968 0.000906951 0.00868134 -0.00667163 0.00142896 4352 4451 0 183.185 17.6438 -82.6344 5.66693e-08 0 
0.00948922 -0.00661968 0.000906951 0.00965377 -0.0066933 0.00187069 4352 3702 0 -10.2605 19.7873 -75.3966 3.04012e-08 0 
0.00948922 -0.00661968 0.000906951 0.00916939 -0.00585246 0.00142093 4352 4359 0 33.5301 -85.4674 -35.7051 3.52693e-08 0 
0.0103377 -0.00655832 0.000474114 0.0106258 -0.00709575 0.000763587 4513 7839 0 2.45872e-06 -5.56894e-06 4.43361e-06 4.46153e-14 0 
0.0103377 -0.00655832 0.000474114 0.011266 -0.00630253 0.000467638 4513 3913 0 -195.544 -51.39 -5.26872 5.71814e-08 0 
0.00999848 -0.00706269 0.000911811 0.0102027 0.00746334 0.000476779 7822 5071 1 6.88761e-07 -3.87619e-06 -2.83336e-06 8.12653e-14 0 
0.0111717 -0.00737251 0.000478903 0.0106258 -0.00709575 0.000763587 4897 7839 0 6.52317e-07 -1.70362e-07 -3.53774e-07 8.34699e-14 0 
0.0111717 -0.00737251 0.000478903 0.0120291 -0.00690017 0.000497353 4897 4640 0 -69.9913 -50.1648 1.46921 3.24789e-08 0 
0.0111717 -0.00737251 0.000478903 0.0113467 -0.00684295 0.00126731 4897 4242 0 -39.6479 -97.0243 -145.834 5.28948e-08 0 
0.0106258 -0.00709575 0.000763587 0.0102027 0.00746334 0.000476779 7839 5071 1 4.61858e-06 5.66114e-06 5.25744e-06 9.29851e-14 0 
0.0120291 -0.00690017 0.000497353 0.011266 -0.00630253 0.000467638 4640 3913 0 128.204 -77.8213 1.73591 4.68032e-08 0 
-0.0120156 -0.00564563 0.000961847 -0.0111925 -0.00584438 0.000475541 414 270 0 -85.13 40.3158 44.8629 3.65672e-08 0 
-0.0120156 -0.00564563 0.000961847 -0.0120259 -0.00478681 0.000479985 414 668 0 6.50266 -48.7917 20.9963 2.36542e-08 0 
-0.0120156 -0.00564563 0.000961847 -0.0120125 -0.0055206 0.00193681 414 826 0 0.939311 -2.75469 -63.153 2.6551e-08 0 
-0.0111925 -0.00584438 0.000475541 -0.0106011 -0.00524348 0.000986784 270 1268 0 -30.8894 -32.5245 -16.3298 2.18194e-08 0 
-0.0111925 -0.00584438 0.000475541 -0.0110941 -0.00652126 0.00116627 270 559 0 -36.1859 90.4748 -91.881 4.32314e-08 0 
-0.0101985 -0.00599878 0.000487367 -0.0106011 -0.00524348 0.000986784 947 1268 0 10.1292 -17.9437 -13.1633 1.41762e-08 0 
-0.0101985 -0.00599878 0.000487367 -0.00977247 -0.00648435 0.00123149 947 95 0 -17.8926 19.323 -43.2558 2.27673e-08 0 
-0.0088579 -0.00611711 0.00047741 -0.00787553 -0.00623553 0.000458324 1637 1203 0 -29.6761 1.7091 4.43709 1.61565e-08 0 
-0.0088579 -0.00611711 0.00047741 -0.00943254 -0.00532745 0.000457376 1637 1459 0 47.6224 -88.8239 1.1619 3.59846e-08 0 
-0.0088579 -0.00611711 0.00047741 -0.00831089 -0.00593466 0.00125266 1637 1392 0 -104.03 -48.8424 -134.354 5.22124e-08 0 
-0.00787553 -0.00623553 0.000458324 -0.00718903 -0.00554793 0.000545349 1203 208 0 -85.0075 -67.8712 -7.79693 3.79769e-08 0 
-0.00787553 -0.00623553 0.000458324 -0.00829854 -0.00687798 0.0010549 1203 748 0 32.3675 84.3636 -86.0244 4.11621e-08 0 
-0.00787553 -0.00623553 0.000458324 -0.00831089 -0.00593466 0.00125266 1203 1392 0 103.005 -69.4828 -247.465 6.98782e-08 0 
-0.00718903 -0.00554793 0.000545349 -0.00646975 -0.00618772 0.000441568 208 440 0 -120.192 103.536 23.2306 4.9103e-08 0 
-0.00718903 -0.00554793 0.000545349 -0.00724014 -0.00458381 0.0004974 208 1560 0 20.2419 -171.214 8.47051 5.14964e-08 0 
-0.00718903 -0.00554793 0.000545349 -0.00738122 -0.00563476 0.00150965 208 1278 0 14.9429 -0.192608 -39.498 2.01389e-08 0 
-0.00646975 -0.00618772 0.000441568 -0.00609603 -0.00530822 0.00047012 440 332 0 -127.871 -228.322 -27.6843 6.75427e-08 0 
-0.00646975 -0.00618772 0.000441568 -0.00689215 -0.00642223 0.00124852 440 1585 0 219.993 129.341 -325.654 9.06492e-08 0 
-0.00462704 -0.00634136 0.000497366 -0.00481382 -0.00537421 0.000471984 687 205 0 7.77698 -49.6806 -1.46724 2.28509e-08 0 
-0.00388606 -0.0056616 0.00045869 -0.00298846 -0.00600373 0.000470611 1481 1162 0 -203.962 83.0199 -44.9519 6.05623e-08 0 
-0.00388606 -0.0056616 0.00045869 -0.00481382 -0.00537421 0.000471984 1481 205 0 134.993 -29.1608 20.9179 4.43706e-08 0 
-0.00388606 -0.0056616 0.00045869 -0.00377514 -0.00599511 0.00135558 1481 188 0 -14.2964 52.3468 -192.466 5.65946e-08 0 
-0.00388606 -0.0056616 0.00045869 -0.00416113 -0.00502054 0.00113256 1481 775 0 27.5947 -85.997 -119.498 4.6553e-08 0 
-0.00298846 -0.00600373 0.000470611 -0.0029921 -0.00504172 0.000455506 1162 242 0 14.3086 -208.588 -9.68785 5.83467e-08 0 
-0.00298846 -0.00600373 0.000470611 -0.00249514 -0.00630869 0.00122086 1162 1137 0 -205.164 118.306 -237.743 7.91473e-08 0 
-0.00200149 -0.00616753 0.000444574 -0.00110076 -0.0062023 0.000795341 1698 492 0 -144.93 7.82564 -89.5404 5.06029e-08 0 
-0.00200149 -0.00616753 0.000444574 -0.00148328 -0.00535281 0.000477106 1698 1153 0 -100.332 -146.268 17.8964 5.23368e-08 0 
-0.00200149 -0.00616753 0.000444574 -0.00249514 -0.00630869 0.00122086 1698 1137 0 256.22 93.1237 -438.827 1.0506e-07 0 
-0.00110076 -0.0062023 0.000795341 -0.000291719 -0.00581476 0.000464114 492 518 0 -204.98 -99.4488 130.241 6.72015e-08 0 
-0.00110076 -0.0062023 0.000795341 -0.00148328 -0.00535281 0.000477106 492 1153 0 17.6843 -45.1772 27.1798 2.41686e-08 0 
-0.00110076 -0.0062023 0.000795341 -0.0016326 -0.00677168 0.00135245 492 1115 0 130.18 176.274 -116.917 6.48496e-08 0 
-0.00110076 -0.0062023 0.000795341 -0.00171486 -0.00581063 0.00146237 492 1056 0 23.2891 -21.2988 -23.5166 1.92709e-08 0 
-0.00110076 -0.0062023 0.000795341 -0.000569821 -0.00590716 0.00154988 492 1533 0 -93.6692 -42.577 -118.86 4.84381e-08 0 
-0.000351975 -0.00642167 0.000174967 -0.000291719 -0.00581476 0.000464114 7931 518 0 -0.000702695 -0.00393661 -0.0028679 3.11251e-11 0 
-0.000291719 -0.00581476 0.000464114 2.85338e-05 -0.00625322 0.000865139 518 7921 0 -1.23509e-06 2.05597e-06 -1.17116e-06 7.17439e-14 0 
-0.000291719 -0.00581476 0.000464114 0.000274277 -0.00575264 0.000826625 518 7928 0 6.22477e-06 1.43992e-06 5.84427e-06 1.47271e-13 0 
-0.000291719 -0.00581476 0.000464114 -0.000438628 -0.00625274 0.000956268 518 7911 0 0.0125547 -0.0860264 -0.0728128 7.00369e-14 0 
-0.000291719 -0.00581476 0.000464114 0.000593112 -0.00622272 0.000461945 518 4354 0 -113.074 32.3766 -5.0582 3.97714e-08 0 
-0.000291719 -0.00581476 0.000464114 -0.000639692 -0.00489575 0.000466609 518 1529 0 23.4063 -60.012 -12.0993 2.69549e-08 0 
-0.000291719 -0.00581476 0.000464114 -3.30466e-05 -0.00586311 0.00108571 518 7925 0 0.00134926 -0.000195077 -0.000576929 7.97521e-14 0 
-0.000291719 -0.00581476 0.000464114 -4.18735e-05 -0.00518467 0.00115553 518 3974 0 -63.6723 -84.0099 -124.646 4.90861e-08 0 
0.000274277 -0.00575264 0.000826625 0.000593112 -0.00622272 0.000461945 7928 4354 0 -9.59828e-06 1.02415e-05 1.24011e-05 1.77324e-13 0 
0.000274277 -0.00575264 0.000826625 0.000260912 -0.00604312 0.00102142 7928 7932 0 3.29338e-06 1.14731e-05 -8.93079e-06 8.65686e-14 0 
0.000274277 -0.00575264 0.000826625 0.000860811 -0.00547265 0.00100885 7928 4345 0 -8.14003e-06 -5.7365e-06 -4.09438e-06 1.87491e-13 0 
0.000593112 -0.00622272 0.000461945 0.000260912 -0.00604312 0.00102142 4354 7932 0 -0.00445956 -0.00955316 0.000428125 4.12138e-14 0 
0.000593112 -0.00622272 0.000461945 0.000501586 -0.00632058 0.00111489 4354 7916 0 2.63269 4.29222 -15.137 6.78459e-09 0 
0.000593112 -0.00622272 0.000461945 0.00115785 -0.00641672 0.0012229 4354 4910 0 -93.9909 65.8205 -126.395 5.05627e-08 0 
0.000593112 -0.00622272 0.000461945 0.000860811 -0.00547265 0.00100885 4354 4345 0 -44.3044 -124.573 -119.226 5.23217e-08 0 
0.00157065 -0.00578911 0.000462847 0.00249227 -0.00610641 0.000489324 3531 5028 0 -112.077 16.0505 -8.53441 3.86732e-08 0 
0.00157065 -0.00578911 0.000462847 0.00227339 -0.00522938 0.000850218 3531 5018 0 -60.9174 -46.2789 -50.1022 3.36221e-08 0 
0.00157065 -0.00578911 0.000462847 0.000860811 -0.00547265 0.00100885 3531 4345 0 208.711 -102.99 -222.447 7.68596e-08 0 
0.00249227 -0.00610641 0.000489324 0.00344065 -0.00593234 0.000486865 5028 4810 0 -194.694 -0.00697046 5.8353 5.51975e-08 0 
0.00249227 -0.00610641 0.000489324 0.00227339 -0.00522938 0.000850218 5028 5018 0 44.8576 -102.896 -55.4319 4.13597e-08 0 
0.00344065 -0.00593234 0.000486865 0.00434937 -0.00555302 0.000476119 4810 3994 0 -45.5307 -28.7864 3.87761 2.37295e-08 0 
0.00344065 -0.00593234 0.000486865 0.00316977 -0.00498439 0.000492501 4810 4539 0 18.2208 -44.0065 -3.21264 2.19799e-08 0 
0.00344065 -0.00593234 0.000486865 0.00337215 -0.00658812 0.0012387 4810 3540 0 0.00122692 -0.0200277 -0.017372 8.18654e-13 0 
0.00344065 -0.00593234 0.000486865 0.00379212 -0.00568756 0.00137064 4810 5031 0 -12.7194 -21.2995 -64.3645 2.78698e-08 0 
0.00434937 -0.00555302 0.000476119 0.00531644 -0.00574591 0.000604766 3994 5099 0 -11.2394 1.44503 -3.20319 8.65649e-09 0 
0.00434937 -0.00555302 0.000476119 0.00421174 -0.00458544 0.000469372 3994 4744 0 5.7245 -96.7758 -15.4927 3.51878e-08 0 
0.00434937 -0.00555302 0.000476119 0.00466629 -0.00608504 0.00125037 3994 3927 0 -4.90128 10.0259 -19.8226 1.33952e-08 0 
0.00434937 -0.00555302 0.000476119 0.00482677 -0.0049956 0.00109419 3994 4956 0 -97.2812 -162.677 -136.249 6.2337e-08 0 
0.00531644 -0.00574591 0.000604766 0.00609706 -0.00632617 0.000460808 5099 5022 0 -46.7404 35.916 20.5452 2.60819e-08 0 
0.00531644 -0.00574591 0.000604766 0.00542905 -0.00478599 0.000429261 5099 4630 0 -9.10756 -62.5012 24.7905 2.75342e-08 0 
0.00531644 -0.00574591 0.000604766 0.00621575 -0.00535217 0.000482704 5099 3813 0 -28.1355 -12.5027 6.44731 1.67279e-08 0 
0.00531644 -0.00574591 0.000604766 0.00466629 -0.00608504 0.00125037 5099 3927 0 72.7439 40.5328 -54.9862 3.57394e-08 0 
0.00609706 -0.00632617 0.000460808 0.00621575 -0.00535217 0.000482704 5022 3813 0 -19.8632 -69.4074 -7.388 2.88565e-08 0 
0.00609706 -0.00632617 0.000460808 0.00588511 -0.00634786 0.00139369 5022 4107 0 15.2706 10.1484 -255.98 6.62382e-08 0 
0.00703192 -0.00587245 0.000461436 0.00798247 -0.00566121 0.000473801 5017 5015 0 -113.583 -40.8497 -7.50362 4.05764e-08 0 
0.00703192 -0.00587245 0.000461436 0.00621575 -0.00535217 0.000482704 5017 3813 0 127.092 -99.2226 -24.6794 4.92666e-08 0 
0.00703192 -0.00587245 0.000461436 0.00665286 -0.00578311 0.00133722 5017 3919 0 75.3822 11.8848 -230.729 6.38883e-08 0 
0.00798247 -0.00566121 0.000473801 0.0083124 -0.00616734 0.000174416 5015 8211 0 -0.180876 0.300597 0.176686 5.84842e-10 0 
0.00798247 -0.00566121 0.000473801 0.00839482 -0.00612249 0.000743646 5015 8229 0 -0.0106777 -0.0114927 -0.00338663 2.03342e-13 0 
0.00798247 -0.00566121 0.000473801 0.00809007 -0.00609936 0.000975868 5015 8221 0 1.55159e-06 -4.17009e-06 7.30931e-06 3.60311e-14 0 
0.00798247 -0.00566121 0.000473801 0.00855239 -0.0058412 0.000172406 5015 8210 0 -7.88136 1.10623 3.60452 4.55093e-09 0 
0.00798247 -0.00566121 0.000473801 0.00845179 -0.00522646 0.00119002 5015 3690 0 -114.816 -72.2501 -180.679 6.10764e-08 0 
0.00839482 -0.00612249 0.000743646 0.00851687 -0.00581454 0.000856648 8229 8228 0 -2.80285e-06 -5.28492e-06 -9.82386e-07 5.81609e-14 0 
0.00839482 -0.00612249 0.000743646 0.00843279 -0.00613081 0.00109148 8229 8213 0 -7.12328e-06 3.02302e-05 -0.000139809 3.6416e-13 0 
0.00825554 -0.00640872 0.000973782 0.00843279 -0.00613081 0.00109148 8226 8213 0 -1.45509e-05 -1.64184e-05 -4.81463e-06 1.17651e-13 0 
0.00855239 -0.0058412 0.000172406 0.00889562 -0.00581885 0.000170677 8210 8212 0 -7.92181 0.666468 0.473245 3.29365e-09 0 
0.00889562 -0.00581885 0.000170677 0.00916055 -0.00562763 0.000264535 8212 8214 0 -12.2444 -10.2362 -5.70523 5.44789e-09 0 
0.00889562 -0.00581885 0.000170677 0.00877939 -0.00614062 0.000171707 8212 8220 0 3.87796 11.0412 -0.551512 4.282e-09 0 
0.00916055 -0.00562763 0.000264535 0.0098016 -0.00561128 0.000447189 8214 4737 0 -15.0528 1.20471 -2.87309 6.61719e-09 0 
0.00916055 -0.00562763 0.000264535 0.00903304 -0.00500322 0.000464536 8214 4061 0 2.80869 -11.4411 -2.83171 5.68121e-09 0 
0.0098016 -0.00561128 0.000447189 0.00903304 -0.00500322 0.000464536 4737 4061 0 65.359 -44.4144 -15.5696 3.08558e-08 0 
0.0098016 -0.00561128 0.000447189 0.0101322 -0.00588425 0.00129149 4737 3707 0 -101.703 116.266 -310.56 8.11476e-08 0 
0.0098016 -0.00561128 0.000447189 0.00979117 -0.00488306 0.00107638 4737 4996 0 10.9317 -131.736 -162.407 5.78891e-08 0 
0.011266 -0.00630253 0.000467638 0.0110853 -0.00534854 0.000494614 3913 4579 0 3.88473 -138.879 -10.0745 4.43972e-08 0 
0.011266 -0.00630253 0.000467638 0.0113467 -0.00684295 0.00126731 3913 4242 0 -38.0251 74.1087 -137.499 4.86703e-08 0 
0.011266 -0.00630253 0.000467638 0.0111019 -0.00591221 0.00134794 3913 5139 0 -0.0965167 -49.159 -88.9269 3.59661e-08 0 
-0.0120259 -0.00478681 0.000479985 -0.0112798 -0.0043163 0.000872189 668 895 0 -147.954 -73.6136 -80.8653 5.35956e-08 0 
-0.0106011 -0.00524348 0.000986784 -0.0103915 -0.00443271 0.00047831 1268 1100 0 -22.0788 -70.2077 36.6576 3.15656e-08 0 
-0.0106011 -0.00524348 0.000986784 -0.0104674 -0.00596493 0.00164518 1268 1362 0 -8.09093 39.866 -26.1961 2.21121e-08 0 
-0.0106011 -0.00524348 0.000986784 -0.0112044 -0.00496976 0.0017219 1268 1524 0 21.305 -11.2103 -18.6013 1.6214e-08 0 
-0.0106011 -0.00524348 0.000986784 -0.0101169 -0.00509157 0.00183763 1268 1515 0 -11.8955 -8.91626 -21.3533 1.45945e-08 0 
-0.00943254 -0.00532745 0.000457376 -0.00925152 -0.00567129 0.0013508 1459 1013 0 -28.8976 45.6172 -103.937 3.98953e-08 0 
-0.00943254 -0.00532745 0.000457376 -0.00967867 -0.00468133 0.00110884 1459 783 0 87.8608 -182.873 -247.048 7.66072e-08 0 
-0.00826711 -0.00528317 0.000498443 -0.00820986 -0.00428777 0.00045021 475 1298 0 -0.128523 -2.13633 0.0844037 2.80817e-09 0 
-0.00826711 -0.00528317 0.000498443 -0.00831089 -0.00593466 0.00125266 475 1392 0 0.135938 2.15122 -2.54246 3.76994e-09 0 
-0.00724014 -0.00458381 0.0004974 -0.00741741 -0.00363356 0.000483119 1560 595 0 20.5119 -170.685 3.16612 5.13641e-08 0 
-0.00609603 -0.00530822 0.00047012 -0.00557414 -0.00450241 0.000478332 332 1556 0 -128.302 -185.508 -20.798 6.14414e-08 0 
-0.00609603 -0.00530822 0.00047012 -0.00547414 -0.00580519 0.00101741 332 1122 0 -124.63 66.2517 -110.678 5.24244e-08 0 
-0.00609603 -0.00530822 0.00047012 -0.00644773 -0.00469943 0.00113351 332 805 0 85.9491 -111.891 -102.903 5.15171e-08 0 
-0.00557414 -0.00450241 0.000478332 -0.00640746 -0.00398928 0.000473573 1556 682 0 83.4412 -32.8352 7.1725 3.31855e-08 0 
-0.00557414 -0.00450241 0.000478332 -0.00549188 -0.00352207 0.000460797 1556 1164 0 -11.2203 -56.682 10.1159 2.50251e-08 0 
-0.00557414 -0.00450241 0.000478332 -0.00462106 -0.00442281 0.000482015 1556 594 0 -257.475 -12.0469 11.8284 6.69813e-08 0 
-0.00557414 -0.00450241 0.000478332 -0.00572006 -0.00405128 0.00131623 1556 1620 0 43.5536 -90.3119 -177.553 5.7425e-08 0 
-0.00481382 -0.00537421 0.000471984 -0.00462106 -0.00442281 0.000482015 205 594 0 -21.5773 -139.703 -4.82205 4.52095e-08 0 
-0.00481382 -0.00537421 0.000471984 -0.00547414 -0.00580519 0.00101741 205 1122 0 163.118 83.5952 -152.913 6.34311e-08 0 
-0.00481382 -0.00537421 0.000471984 -0.00416113 -0.00502054 0.00113256 205 775 0 -9.23614 -3.03796 -10.4669 9.8445e-09 0 
-0.0029921 -0.00504172 0.000455506 -0.00366689 -0.00436355 0.00046946 242 1441 0 163.632 -194.918 -44.6922 6.64163e-08 0 
-0.0029921 -0.00504172 0.000455506 -0.00240922 -0.00425269 0.000464365 242 1623 0 -55.6515 -50.9528 1.55918 2.95419e-08 0 
-0.0029921 -0.00504172 0.000455506 -0.00296386 -0.00545066 0.0013199 242 661 0 -50.9373 108.801 -229.353 6.65919e-08 0 
-0.0029921 -0.00504172 0.000455506 -0.00306747 -0.00446975 0.00123471 242 993 0 20.0312 -98.8505 -112.786 4.71365e-08 0 
-0.00148328 -0.00535281 0.000477106 -0.000639692 -0.00489575 0.000466609 1153 1529 0 -202.243 -110.702 -1.17396 6.23113e-08 0 
-0.00148328 -0.00535281 0.000477106 -0.00216062 -0.00496729 0.00105158 1153 816 0 118.638 -56.8144 -92.3674 4.91492e-08 0 
-0.000639692 -0.00489575 0.000466609 -0.0014274 -0.00432382 0.000479695 1529 279 0 85.4243 -89.8233 -0.922534 4.10375e-08 0 
-0.000639692 -0.00489575 0.000466609 -0.000227736 -0.00403047 0.00056092 1529 1613 0 -76.0633 -182.11 -56.2405 5.70988e-08 0 
-0.000639692 -0.00489575 0.000466609 -4.18735e-05 -0.00518467 0.00115553 1529 3974 0 -179.172 67.2685 -169.13 6.63866e-08 0 
-0.000639692 -0.00489575 0.000466609 -0.000637136 -0.00442395 0.00133564 1529 1603 0 -0.994064 -12.4581 -31.1543 1.74204e-08 0 
0.00144257 -0.00478463 0.000585835 0.00227339 -0.00522938 0.000850218 3782 5018 0 -73.4742 46.2366 -15.8676 3.30275e-08 0 
0.00144257 -0.00478463 0.000585835 0.000716865 -0.00413845 0.000468436 3782 3802 0 68.0455 -52.7901 18.7784 3.30006e-08 0 
0.00144257 -0.00478463 0.000585835 0.000860811 -0.00547265 0.00100885 3782 4345 0 5.42878 6.55357 -2.91066 7.26957e-09 0 
0.00227339 -0.00522938 0.000850218 0.00316977 -0.00498439 0.000492501 5018 4539 0 -6.85426 -1.33913 3.88848 6.69375e-09 0 
0.00227339 -0.00522938 0.000850218 0.00239087 -0.00437012 0.000457046 5018 4346 0 -4.75648 -256.168 154.587 7.32672e-08 0 
0.00227339 -0.00522938 0.000850218 0.00196996 -0.00592179 0.0014464 5018 4769 0 99.6273 135.576 -120.006 5.73819e-08 0 
0.00227339 -0.00522938 0.000850218 0.00294155 -0.00526036 0.0015368 5018 5030 0 -177.551 18.9922 -159.871 6.37772e-08 0 
0.00316977 -0.00498439 0.000492501 0.00239087 -0.00437012 0.000457046 4539 4346 0 12.0188 -13.8155 -0.284312 1.15629e-08 0 
0.00316977 -0.00498439 0.000492501 0.00306058 -0.00435707 0.00124783 4539 4637 0 2.59402 -28.5956 -25.0244 1.88634e-08 0 
0.00421174 -0.00458544 0.000469372 0.00494932 -0.00392385 0.000487206 4744 4068 0 -19.2236 -14.854 -1.28289 1.41075e-08 0 
0.00421174 -0.00458544 0.000469372 0.00482677 -0.0049956 0.00109419 4744 4956 0 -97.5305 94.1367 -93.9274 4.95643e-08 0 
0.00421174 -0.00458544 0.000469372 0.00396761 -0.0038392 0.00101463 4744 3548 0 103.238 -203.192 -134.777 6.77129e-08 0 
0.00542905 -0.00478599 0.000429261 0.00621575 -0.00535217 0.000482704 4630 3813 0 -127.678 63.9388 -17.1225 4.53062e-08 0 
0.00542905 -0.00478599 0.000429261 0.00494932 -0.00392385 0.000487206 4630 4068 0 13.6057 -32.8724 -6.96 1.82292e-08 0 
0.00542905 -0.00478599 0.000429261 0.00631409 -0.00437042 0.000457968 4630 3961 0 -88.6977 -26.0622 1.62146 3.39188e-08 0 
0.00542905 -0.00478599 0.000429261 0.00482677 -0.0049956 0.00109419 4630 4956 0 343.971 117.95 -516.765 1.18748e-07 0 
0.00542905 -0.00478599 0.000429261 0.00566215 -0.00422099 0.00116714 4630 4746 0 -60.0444 -139.595 -188.875 6.43837e-08 0 
0.00621575 -0.00535217 0.000482704 0.00631409 -0.00437042 0.000457968 3813 3961 0 1.1866 -42.2978 6.04318 2.03405e-08 0 
0.00621575 -0.00535217 0.000482704 0.00640923 -0.00485287 0.00128847 3813 3745 0 -35.0145 -82.55 -139.812 5.02728e-08 0 
0.00717956 -0.00470732 0.000663944 0.00811899 -0.00465274 0.000475202 3762 4004 0 -219.691 -6.39321 66.4332 6.19466e-08 0 
0.00717956 -0.00470732 0.000663944 0.00631409 -0.00437042 0.000457968 3762 3961 0 279.621 -80.9936 97.3616 7.46432e-08 0 
0.00717956 -0.00470732 0.000663944 0.00750269 -0.00535693 0.0012983 3762 4189 0 -56.6865 160.12 -103.891 5.59132e-08 0 
0.00717956 -0.00470732 0.000663944 0.00716397 -0.00406827 0.00140402 3762 4341 0 -3.24372 -72.7337 -59.9035 3.42936e-08 0 
0.00844456 -0.00516658 0.000175 0.00859759 -0.00548135 0.000175 8232 8218 0 -6.76427e-06 1.1695e-05 -2.51457e-06 6.27546e-14 0 
0.00811899 -0.00465274 0.000475202 0.00903304 -0.00500322 0.000464536 4004 4061 0 -82.011 26.1878 14.9097 3.26394e-08 0 
0.00811899 -0.00465274 0.000475202 0.00860394 -0.0038052 0.000459883 4004 4702 0 -59.171 -83.1452 -15.4129 3.63292e-08 0 
0.00811899 -0.00465274 0.000475202 0.00845179 -0.00522646 0.00119002 4004 3690 0 -47.9148 49.5261 -89.3362 3.85797e-08 0 