ITEM: TIMESTEP
2100000
ITEM: NUMBER OF ATOMS
8393
ITEM: BOX BOUNDS mm pp mm
-0.0125 0.0125
-0.0075 0.0075
0 0.015
ITEM: ATOMS id type type x y z ix iy iz vx vy vz fx fy fz omegax omegay omegaz radius f_Temp[0] f_heatSource[0] 
1566 1 1 -0.012 -0.00714613 0.000499999 0 0 0 1.33562e-05 0.000204218 -4.03402e-13 2.3728e-20 -1.98412e-18 0 -0.408436 0.0267125 -0.672955 0.0005 573 0 
1274 1 1 -0.0105973 -0.00691136 0.000450665 0 0 0 -2.55916e-06 -1.53174e-06 -3.84094e-07 -2.89302e-07 1.26098e-07 2.9388e-08 0.00221694 -0.00687025 0.0178641 0.0005 573 0 
1422 1 1 -0.00940612 -0.00691088 0.000463557 0 0 0 1.2584e-06 -3.50562e-08 1.96127e-07 -4.36292e-07 -4.54581e-08 -6.72377e-08 -0.000121312 0.000752336 0.0119762 0.0005 573 0 
1497 1 1 -0.00720442 -0.00695887 0.000469664 0 0 0 1.78071e-06 -2.22085e-06 -1.77967e-06 3.30043e-06 1.97652e-06 7.40042e-07 0.0049932 0.00344826 0.0132504 0.0005 573 0 
597 1 1 -0.00579007 -0.0067028 0.000846249 0 0 0 2.96994e-07 6.41824e-06 -1.09913e-06 9.26243e-06 5.98092e-05 3.11231e-05 -0.022559 0.015465 -0.0112139 0.0005 573 0 
598 1 1 -0.00506539 -0.0072233 0.000464971 0 0 0 7.07259e-07 2.66076e-06 -1.1305e-06 -6.74954e-06 -7.75753e-06 3.25812e-06 -0.00524702 0.00221991 0.00994692 0.0005 573 0 
638 1 1 -0.00370289 -0.00668757 0.000560366 0 0 0 8.94151e-08 8.56164e-07 -5.26379e-07 1.10401e-07 4.11597e-07 -4.88362e-07 -0.000686804 0.00117521 0.00185622 0.0005 573 0 
1033 1 1 -0.00274835 -0.00694317 0.000469389 0 0 0 7.78925e-07 7.50915e-07 -4.2483e-07 7.91614e-06 -7.88992e-06 6.22481e-06 -0.000267782 -0.00048472 -0.000903791 0.0005 573 0 
565 1 1 -0.00178538 -0.00712539 0.000470042 0 0 0 6.60099e-06 6.35973e-06 2.29581e-06 9.04491e-05 0.000132681 5.11392e-05 0.000718235 0.000642985 0.021723 0.0005 573 0 
560 1 1 -0.000578637 -0.00697838 0.000482024 0 0 0 -0.000253041 0.000279811 -6.8215e-05 0.00201849 -0.00272926 0.000758641 -0.363776 -0.310651 1.47059 0.0005 573 0 
4612 1 1 0.000370546 -0.00746407 0.000490888 0 0 0 5.82033e-06 1.06412e-05 1.46819e-05 0.000110594 0.000207504 0.000187797 -0.0390968 0.0551486 -0.0183493 0.0005 573 0 
7919 2 2 5.12252e-05 -0.00689784 0.000710968 0 0 0 -0.000982974 -0.00135862 0.00319617 0 0 -7.57583e-07 -5003.85 4251.4 -1586.86 0.000175 573 0 
7922 2 2 0.000336087 -0.00685782 0.000175 0 0 0 0.0387344 -0.000358336 4.47967e-13 -1.44498e-07 -4.55804e-08 0 12897.5 -40659.4 -11548.8 0.000175 573 0 
7923 2 2 0.000403147 -0.00682511 0.000690618 0 0 0 0.000246551 8.54256e-05 0.000189794 2.21759e-05 9.58762e-06 -2.5171e-05 0.640191 -0.639785 -1.59798 0.000175 573 0 
7924 2 2 0.000465257 -0.00662418 0.000964895 0 0 0 0.000252319 7.91132e-05 0.000226862 -5.95262e-05 1.26891e-05 -3.47289e-05 -0.0572459 -1.61184 -1.10155 0.000175 573 0 
7933 2 2 0.000146801 -0.00657968 0.000821133 0 0 0 -0.0094592 -8.6274e-05 -0.011841 4.33167e-07 3.98001e-07 -1.30666e-06 6959.16 -44363.1 1831.44 0.000175 573 0 
7918 2 2 -0.000261017 -0.00657944 0.000924286 0 0 0 0.00987117 0.00586916 -0.0123829 2.93545e-07 2.17272e-07 -4.16049e-07 46425.6 34136.8 -22252.1 0.000175 573 0 
7930 2 2 4.07458e-05 -0.00666747 0.000178253 0 0 0 0.0262141 -0.0296052 -0.000474193 0 0 -7.57583e-07 -2363.04 32413.1 3035.24 0.000175 573 0 
7920 2 2 0.000770314 -0.00697979 0.000812758 0 0 0 -0.041469 0.0180727 -0.0353773 0 0 -7.57583e-07 -3495.52 -1215.92 1435.76 0.000175 573 0 
4652 1 1 0.00174691 -0.00674752 0.000494362 0 0 0 7.26648e-06 3.22471e-06 3.86641e-06 0.000103205 9.09341e-05 7.57507e-05 -0.00271002 0.0328385 -0.015886 0.0005 573 0 
7628 2 2 0.00210921 -0.00722912 0.000175 0 1 0 0.000448828 -0.00171428 2.08076e-13 3.58898e-20 9.41023e-19 0 9.79586 2.56473 1522.8 0.000175 573 0 
4687 1 1 0.00268888 -0.00706924 0.000481764 0 0 0 1.89208e-08 -1.72397e-06 -1.35962e-06 -2.73613e-06 -1.77044e-05 -2.6924e-05 -0.00224997 -0.00123244 0.00328831 0.0005 573 0 
4628 1 1 0.00364302 -0.00729694 0.000524631 0 0 0 8.63488e-07 -1.85805e-06 4.47238e-07 3.3883e-07 -6.47958e-06 -2.65104e-05 -0.00952178 -0.000135503 -0.000421172 0.0005 573 0 
3628 1 1 0.00421787 -0.00650632 0.000481449 0 0 0 8.70249e-07 -3.44664e-06 -9.74086e-06 -4.41815e-06 -5.26265e-06 2.41445e-06 -0.0175531 -0.0345588 0.00269322 0.0005 573 0 
4134 1 1 0.00466212 -0.00735112 0.000453175 0 0 0 1.97436e-07 -1.30021e-06 1.11892e-06 5.45234e-06 -6.13746e-06 8.43288e-06 0.0035113 0.001004 -0.00152641 0.0005 573 0 
4428 1 1 0.00550401 -0.00702597 0.000812453 0 0 0 -2.15668e-07 -1.1421e-06 5.13116e-09 6.42458e-06 -3.23129e-06 2.09967e-06 -0.000462503 0.00100286 0.0012492 0.0005 573 0 
4215 1 1 0.00679824 -0.00701917 0.000555159 0 0 0 1.3818e-05 -6.60431e-06 -2.15286e-06 0.000340875 -8.68413e-05 -7.55276e-05 0.000470624 0.0179156 -0.0463302 0.0005 573 0 
3792 1 1 0.00765857 -0.00657682 0.000707345 0 0 0 7.85692e-05 0.000137718 -9.81771e-05 0.000742588 0.000702953 -0.000417031 0.142563 0.21918 0.439908 0.0005 573 0 
5036 1 1 0.00858871 -0.00670757 0.000468499 0 0 0 0.000217715 5.25663e-05 -0.000398041 -0.0022362 3.85208e-05 0.00538639 -1.09835 0.397601 -1.02273 0.0005 573 0 
4111 1 1 0.00921658 -0.00746046 0.00048141 0 0 0 -4.33709e-06 -3.40409e-05 1.15352e-05 4.57144e-05 -0.000130429 -0.000465664 0.0217584 0.0526602 0.276595 0.0005 573 0 
4352 1 1 0.00948922 -0.00661968 0.000906951 0 0 0 1.01607e-06 4.65178e-05 -9.69955e-06 -0.00024639 -1.74064e-05 0.000344565 -0.0127736 0.104537 0.00341318 0.0005 573 0 
8215 2 2 0.00938264 -0.00681088 0.000175003 0 0 0 -0.0542902 0.0303858 -5.9998e-05 0 0 -7.57583e-07 -234.775 -214.839 -413.263 0.000175 573 0 
8217 2 2 0.00963911 -0.00657258 0.00017513 0 0 0 -0.010981 -0.012199 0.00308553 0 0 -7.57583e-07 1181.93 -535.353 -1463.76 0.000175 573 0 
8224 2 2 0.00977357 -0.00692965 0.000185335 0 0 0 -0.0084945 0.0111685 -0.0762289 0 0 -7.57583e-07 127.236 413.436 122.633 0.000175 573 0 
4513 1 1 0.0103377 -0.00655832 0.000474114 0 0 0 3.48609e-06 2.16439e-05 9.98072e-06 0.000155629 1.09188e-05 -0.000531059 -0.115428 -0.0975885 0.0546638 0.0005 573 0 
7822 2 2 0.00999848 -0.00706269 0.000911811 0 0 0 -0.000601596 -0.000694134 0.000716444 3.66293e-07 -3.68306e-06 -3.55542e-06 3997.65 -7307.86 -3975.15 0.000175 573 0 
4897 1 1 0.0111717 -0.00737251 0.000478903 0 0 0 1.56314e-05 -2.45452e-05 -2.18914e-05 3.27522e-05 1.51478e-05 -1.38361e-05 -0.0379263 0.0279292 0.133048 0.0005 573 0 
7839 2 2 0.0106258 -0.00709575 0.000763587 0 0 0 -0.00012094 -0.000397835 7.2751e-05 1.50788e-06 1.14143e-05 4.33217e-07 6040.88 -1133.91 3581.04 0.000175 573 0 
4640 1 1 0.0120291 -0.00690017 0.000497353 0 0 0 -5.60796e-07 4.54334e-06 -4.68846e-06 -2.14923e-05 8.26385e-05 -9.91436e-05 0.00509755 -0.015525 -0.0216982 0.0005 573 0 
414 1 1 -0.0120156 -0.00564563 0.000961847 0 0 0 6.17589e-07 2.30468e-09 3.56746e-07 -7.93294e-09 2.05838e-07 3.79002e-08 -0.00245217 -0.00156957 0.000305676 0.0005 573 0 
270 1 1 -0.0111925 -0.00584438 0.000475541 0 0 0 1.2767e-06 -7.82176e-07 1.31838e-07 -6.37686e-08 3.5842e-07 1.56854e-09 0.00121342 0.00276088 -0.000647975 0.0005 573 0 
947 1 1 -0.0101985 -0.00599878 0.000487367 0 0 0 -5.71232e-07 -4.93438e-08 5.80207e-07 -3.24518e-07 2.45678e-07 -3.24258e-08 -0.00156279 0.000181705 -0.0117937 0.0005 573 0 
1637 1 1 -0.0088579 -0.00611711 0.00047741 0 0 0 -5.88668e-09 1.22072e-06 4.32704e-07 -4.54589e-07 4.607e-08 8.83133e-08 -0.000552232 -0.000387674 -0.00600775 0.0005 573 0 
1203 1 1 -0.00787553 -0.00623553 0.000458324 0 0 0 -7.01902e-07 -2.3229e-06 2.38166e-07 -3.0985e-07 1.02674e-08 -5.91874e-07 0.00328285 -0.00106077 -0.0068144 0.0005 573 0 
208 1 1 -0.00718903 -0.00554793 0.000545349 0 0 0 -3.10151e-06 -1.03965e-06 -9.44692e-07 -5.53623e-07 -3.54943e-06 -1.82534e-06 -0.00400022 0.00203012 0.0101693 0.0005 573 0 
440 1 1 -0.00646975 -0.00618772 0.000441568 0 0 0 2.15606e-07 2.22661e-06 -2.83024e-07 8.13379e-06 4.54691e-06 7.49352e-06 -0.00264613 0.00160999 0.00164729 0.0005 573 0 
687 1 1 -0.00462704 -0.00634136 0.000497366 0 0 0 -1.01462e-06 1.76673e-06 -8.96374e-07 -1.89691e-06 -9.90274e-08 3.43138e-06 0.00330218 -0.00298399 -0.00349661 0.0005 573 0 
1481 1 1 -0.00388606 -0.0056616 0.00045869 0 0 0 1.90641e-07 9.71611e-07 -4.60271e-08 3.50555e-06 1.84568e-06 -3.75261e-06 -0.00182486 0.00108381 -0.000673135 0.0005 573 0 
1162 1 1 -0.00298846 -0.00600373 0.000470611 0 0 0 -2.40951e-07 7.34897e-07 -2.23374e-07 -1.25817e-05 3.22629e-06 3.88733e-06 -0.000360888 -0.00097165 0.000363273 0.0005 573 0 
1698 1 1 -0.00200149 -0.00616753 0.000444574 0 0 0 -1.76387e-05 1.64823e-05 5.35668e-06 -0.000399515 0.0002611 6.41758e-05 -0.0295286 -0.0547462 0.0675439 0.0005 573 0 
492 1 1 -0.00110076 -0.0062023 0.000795341 0 0 0 -0.000125137 -4.15792e-05 -0.000103507 -0.000825544 -0.000129351 2.8412e-05 0.0844551 0.403559 -0.472832 0.0005 573 0 
7931 2 2 -0.000351975 -0.00642167 0.000174967 0 0 0 -0.000124873 5.72434e-05 -0.000119489 -5.7145e-05 1.77645e-05 -5.26397e-06 -0.405234 -0.937468 -2.12269 0.000175 573 0 
518 1 1 -0.000291719 -0.00581476 0.000464114 0 0 0 4.51584e-06 -0.000146676 -3.1377e-05 -0.000668581 0.000962994 0.00107163 0.291541 -0.292136 0.044933 0.0005 573 0 
7921 2 2 2.85338e-05 -0.00625322 0.000865139 0 0 0 0.00587448 0.00407628 -0.000227388 1.24818e-06 -2.07776e-06 4.25986e-07 1681.64 -1344.07 1269.76 0.000175 573 0 
7928 2 2 0.000274277 -0.00575264 0.000826625 0 0 0 0.000464259 -0.000199147 -0.000180885 -2.07902e-05 1.46146e-05 -7.20773e-06 164.733 36.3636 98.0669 0.000175 573 0 
7911 2 2 -0.000438628 -0.00625274 0.000956268 0 0 0 -0.000249843 0.0257438 0.0228378 -5.82539e-07 -1.20776e-06 1.32573e-06 -29258.1 -12639.9 9923.02 0.000175 573 0 
7917 2 2 0.00117283 -0.00647214 0.000175 0 0 0 -0.00940146 -0.034354 -1.26006e-12 3.75794e-09 1.5147e-07 0 -449.195 -37.7078 -8769.78 0.000175 573 0 
4354 1 1 0.000593112 -0.00622272 0.000461945 0 0 0 0.000158967 2.01199e-05 0.000129561 -0.00103927 -3.9915e-05 -0.00263206 -0.295892 0.315335 0.369871 0.0005 573 0 
3531 1 1 0.00157065 -0.00578911 0.000462847 0 0 0 9.74965e-06 1.03318e-05 6.74272e-07 0.00017869 0.000210525 5.71913e-06 -0.0244789 0.0164204 -0.0361682 0.0005 573 0 
5028 1 1 0.00249227 -0.00610641 0.000489324 0 0 0 3.12073e-06 -8.41244e-06 -8.5918e-06 5.4398e-05 -5.69194e-05 -6.07884e-05 -0.00136052 0.0259837 -0.0219704 0.0005 573 0 
4810 1 1 0.00344065 -0.00593234 0.000486865 0 0 0 1.67273e-06 -2.96496e-05 -2.24305e-05 -2.61969e-05 0.000287774 0.000301755 0.11056 -0.0105569 0.0279173 0.0005 573 0 
3994 1 1 0.00434937 -0.00555302 0.000476119 0 0 0 -7.83221e-07 -3.06594e-06 -6.80914e-07 -1.10309e-05 -9.70436e-06 -2.36869e-05 0.0061709 0.00237183 0.00823008 0.0005 573 0 
5099 1 1 0.00531644 -0.00574591 0.000604766 0 0 0 -1.74993e-07 -3.46958e-07 -5.47613e-07 -3.0428e-06 -2.98713e-06 -4.64479e-06 0.000592247 -0.000649442 -0.000424131 0.0005 573 0 
5022 1 1 0.00609706 -0.00632617 0.000460808 0 0 0 7.99268e-07 1.35004e-07 -1.20656e-07 4.95534e-05 1.97956e-05 5.48098e-06 -0.000713877 -0.000948197 0.00451241 0.0005 573 0 
5017 1 1 0.00703192 -0.00587245 0.000461436 0 0 0 -2.84508e-05 -2.27132e-05 2.09167e-05 -0.000435623 -0.000458756 0.000149695 0.0239164 -0.08955 -0.125533 0.0005 573 0 
5015 1 1 0.00798247 -0.00566121 0.000473801 0 0 0 -0.000281674 0.000391563 -0.000102998 0.000120229 -0.000753175 0.00180139 0.841336 0.721127 1.47614 0.0005 573 0 
8211 2 2 0.0083124 -0.00616734 0.000174416 0 0 0 0.000206069 0.000157322 -0.000513201 4.97981e-05 0.000172059 -3.96369e-05 -0.154476 1.47255 0.470175 0.000175 573 0 
8229 2 2 0.00839482 -0.00612249 0.000743646 0 0 0 0.00853146 0.00788109 -0.00216014 6.74819e-06 1.28855e-05 -0.000132171 1900.07 -3049.57 4497.97 0.000175 573 0 
8226 2 2 0.00825554 -0.00640872 0.000973782 0 0 0 -0.000171112 0.00496159 -0.00282061 -5.28481e-06 -1.88929e-05 -1.41757e-05 -2216.09 -222.834 -1157.44 0.000175 573 0 
8221 2 2 0.00809007 -0.00609936 0.000975868 0 0 0 -0.0278522 -0.0104572 -0.00317203 -1.57649e-06 4.23701e-06 -8.18419e-06 380.25 1285.51 -1857.15 0.000175 573 0 
8228 2 2 0.00851687 -0.00581454 0.000856648 0 0 0 0.0256281 0.0113548 -0.0309594 2.82317e-06 5.32323e-06 2.31924e-07 -27297.2 9662.61 -23865.1 0.000175 573 0 
8210 2 2 0.00855239 -0.0058412 0.000172406 0 0 0 -0.00102385 0.00251953 0.00288776 0.00612132 -0.00378268 -0.00423645 -14.0096 5.11004 16.4825 0.000175 573 0 
8212 2 2 0.00889562 -0.00581885 0.000170677 0 0 0 -0.000622394 0.000588423 0.0021084 0.000707575 0.000445924 -0.00162594 2.92906 11.8948 -11.5397 0.000175 573 0 
8214 2 2 0.00916055 -0.00562763 0.000264535 0 0 0 0.000206222 -0.000271617 -0.00024464 0.000266984 -0.000277196 0.000441473 -1.74624 -0.739134 1.96669 0.000175 573 0 
8216 2 2 0.00858529 -0.0060326 0.00046358 0 0 0 0.0283883 -0.0106522 0.00864863 -5.314e-05 0.000652559 0.000114981 69382.2 67430.7 28168.3 0.000175 573 0 
8219 2 2 0.00894732 -0.00577926 0.000514922 0 0 0 -0.0106233 -0.0214663 0.00743507 0 0 -7.57583e-07 -65821.9 -16253.5 -26898.6 0.000175 573 0 
8220 2 2 0.00877939 -0.00614062 0.000171707 0 0 0 -0.000235345 -0.000352637 0.000429493 -0.000555143 0.000362892 0.000144028 8.70903 -2.31658 8.34956 0.000175 573 0 
8223 2 2 0.00918193 -0.00561381 0.000715512 0 0 0 -0.00556863 -0.00703226 -0.00628997 0 0 -7.57583e-07 3298.3 -2642.53 5607.22 0.000175 573 0 
8225 2 2 0.0086531 -0.00558994 0.000503067 0 0 0 0.000770425 -0.00276606 -0.000547875 0 0 -7.57583e-07 19708.6 -11838.9 -28415.7 0.000175 573 0 
8227 2 2 0.00883497 -0.00565836 0.000825877 0 0 0 0.00579621 0.0529255 -0.016074 0 0 -7.57583e-07 -9267.37 21985.5 12222.4 0.000175 573 0 
8231 2 2 0.00983038 -0.00622839 0.000175 0 0 0 0.00495614 9.66689e-05 -8.09061e-13 1.20466e-07 9.18977e-08 0 -12956 17011.2 6433.79 0.000175 573 0 
4737 1 1 0.0098016 -0.00561128 0.000447189 0 0 0 3.91618e-07 -3.9225e-05 -4.52843e-05 0.000254881 -8.47157e-05 9.9838e-05 -0.0353649 -0.102819 0.116247 0.0005 573 0 
7828 2 2 0.0105563 -0.00586327 0.000247453 0 0 0 0.0254344 0.00531266 -0.0795032 0 0 -7.57583e-07 -127.684 264.908 -122.728 0.000175 573 0 
3913 1 1 0.011266 -0.00630253 0.000467638 0 0 0 7.87071e-06 1.11018e-05 2.37669e-06 2.30578e-05 0.000121701 -6.50161e-05 -0.0229154 0.0550625 0.01228 0.0005 573 0 
668 1 1 -0.0120259 -0.00478681 0.000479985 0 0 0 2.88599e-07 -1.00749e-07 -1.32529e-07 -8.76612e-08 1.79842e-07 -9.34025e-08 0.000692284 0.000514445 0.000256211 0.0005 573 0 
1268 1 1 -0.0106011 -0.00524348 0.000986784 0 0 0 9.6066e-07 -4.99946e-07 4.7307e-07 -6.67605e-08 5.45591e-07 9.72391e-08 0.00358453 -0.000483656 0.00516458 0.0005 573 0 
1459 1 1 -0.00943254 -0.00532745 0.000457376 0 0 0 8.922e-07 7.24827e-07 3.1627e-07 -7.53847e-07 -3.41125e-07 -3.3802e-07 -0.00115133 0.00219853 0.00545679 0.0005 573 0 
475 1 1 -0.00826711 -0.00528317 0.000498443 0 0 0 8.7759e-07 -1.14737e-07 5.73572e-07 -5.41466e-07 -1.43017e-07 -2.09758e-07 0.000190876 0.0018321 -0.000761238 0.0005 573 0 
1560 1 1 -0.00724014 -0.00458381 0.0004974 0 0 0 -3.74161e-06 -8.81856e-07 -5.99978e-07 -8.09852e-07 -5.1965e-07 -7.07183e-07 0.00404602 -0.00714708 -0.00864194 0.0005 573 0 
332 1 1 -0.00609603 -0.00530822 0.00047012 0 0 0 -3.46381e-07 1.59132e-06 3.06114e-08 -2.58123e-06 1.18873e-05 1.20792e-05 -0.00173418 -0.00218795 -0.00014465 0.0005 573 0 
1556 1 1 -0.00557414 -0.00450241 0.000478332 0 0 0 2.52406e-07 5.47531e-07 -8.53415e-09 -1.61406e-06 2.96729e-06 -8.13174e-07 -0.000316085 0.000264452 -0.000721894 0.0005 573 0 
205 1 1 -0.00481382 -0.00537421 0.000471984 0 0 0 3.1579e-07 1.93632e-06 8.95655e-07 2.13433e-07 2.06696e-06 -4.09039e-07 -0.00323019 0.00217394 -0.00167246 0.0005 573 0 
242 1 1 -0.0029921 -0.00504172 0.000455506 0 0 0 -6.00259e-07 4.71492e-07 -6.31827e-08 -8.03291e-07 1.24668e-07 -2.41722e-08 4.60517e-05 -0.00133793 0.000330303 0.0005 573 0 
1153 1 1 -0.00148328 -0.00535281 0.000477106 0 0 0 -3.57074e-06 8.06381e-06 2.48647e-06 -0.000162486 0.000173369 1.98052e-05 -0.011384 -0.0047104 0.0101543 0.0005 573 0 
1529 1 1 -0.000639692 -0.00489575 0.000466609 0 0 0 -8.19058e-06 -3.22626e-05 1.69848e-05 -5.00565e-05 -0.000217866 -0.000120426 -0.0219133 -0.0362226 -0.0862386 0.0005 573 0 
3782 1 1 0.00144257 -0.00478463 0.000585835 0 0 0 3.23277e-06 3.11185e-06 1.93251e-06 3.48021e-05 8.69339e-05 4.71627e-05 -0.0262831 0.0134098 -0.00874231 0.0005 573 0 
5018 1 1 0.00227339 -0.00522938 0.000850218 0 0 0 2.27544e-06 -1.01181e-06 -5.58555e-07 3.75972e-05 -8.07256e-06 -1.9875e-05 0.00521877 -0.00821733 0.00615708 0.0005 573 0 
4539 1 1 0.00316977 -0.00498439 0.000492501 0 0 0 -8.80245e-07 -5.90394e-06 7.38653e-06 -1.32258e-05 -3.79305e-05 1.94917e-05 -0.023333 -0.00800259 -0.0136738 0.0005 573 0 
4744 1 1 0.00421174 -0.00458544 0.000469372 0 0 0 -3.7095e-07 -4.21139e-07 -1.25064e-08 -7.83116e-06 -4.3358e-06 4.26482e-06 -0.000584108 -0.000121029 -0.00262632 0.0005 573 0 
4630 1 1 0.00542905 -0.00478599 0.000429261 0 0 0 -2.33366e-07 -1.47699e-07 -2.65373e-07 -3.45454e-06 -1.51631e-06 5.65348e-07 0.00011909 -0.000437936 -0.000212157 0.0005 573 0 
3813 1 1 0.00621575 -0.00535217 0.000482704 0 0 0 -3.01186e-07 1.31554e-06 -1.12656e-06 8.34638e-06 5.8179e-05 -1.53917e-05 0.00164203 0.002931 0.00513381 0.0005 573 0 
3762 1 1 0.00717956 -0.00470732 0.000663944 0 0 0 -3.25391e-07 -8.66742e-07 -1.42712e-06 -6.7843e-07 -1.81886e-05 -5.2923e-08 -0.00184251 0.00154177 -0.00559739 0.0005 573 0 
8232 2 2 0.00844456 -0.00516658 0.000175 0 0 0 -0.000389744 -0.00388771 -0.00247807 1.24438e-05 -2.21779e-06 0.000115349 1343.27 1821.12 18438.2 0.000175 573 0 
4004 1 1 0.00811899 -0.00465274 0.000475202 0 0 0 8.90765e-06 -6.8297e-06 4.03135e-06 1.31597e-06 -3.43035e-05 -0.000168316 0.0109375 -0.00967541 0.00719343 0.0005 573 0 
8218 2 2 0.00859759 -0.00548135 0.000175 0 0 0 -0.0100713 -0.00786438 0.00260772 6.76811e-06 -1.17017e-05 1.75841e-06 -10507.5 -22171.8 -11898.2 0.000175 573 0 
8230 2 2 0.00936496 -0.00538449 0.000911852 0 0 0 -0.00113057 0.00421893 0.00443523 3.62463e-07 -3.04124e-07 -1.73526e-07 -6961.61 -32791.6 38471.9 0.000175 573 0 
4061 1 1 0.00903304 -0.00500322 0.000464536 0 0 0 8.00062e-07 -0.00011598 -8.63206e-05 -6.417e-05 0.00159713 0.00143461 0.351012 0.0253133 -0.160661 0.0005 573 0 
5113 1 1 0.0104799 -0.00459336 0.000445531 0 0 0 3.21825e-08 -2.75164e-06 -1.71568e-06 -1.10451e-05 -6.18753e-05 -3.91153e-05 0.00845278 -0.00394867 0.00997253 0.0005 573 0 
4579 1 1 0.0110853 -0.00534854 0.000494614 0 0 0 -1.40622e-07 1.03571e-06 -7.45766e-07 1.25025e-05 2.46699e-05 -1.35021e-05 0.000114521 -0.000829081 -0.000936943 0.0005 573 0 
3901 1 1 0.012019 -0.00536239 0.000781185 0 0 0 -3.85784e-08 1.53833e-07 -2.01919e-07 -2.10751e-07 2.35391e-07 1.2064e-07 -0.000773981 -0.000339387 -0.00034256 0.0005 573 0 
1198 1 1 -0.012027 -0.00372731 0.000447137 0 0 0 8.45555e-08 2.57843e-08 2.01281e-08 -1.67807e-08 1.95199e-07 1.48883e-08 3.01256e-05 0.000141405 0.000175016 0.0005 573 0 
895 1 1 -0.0112798 -0.0043163 0.000872189 0 0 0 1.37218e-07 3.7761e-07 2.77357e-07 -1.67191e-06 5.38097e-07 3.61485e-07 0.000728134 -0.000467497 0.00117878 0.0005 573 0 
1100 1 1 -0.0103915 -0.00443271 0.00047831 0 0 0 -2.98392e-08 4.67958e-07 5.81437e-07 -1.75183e-07 4.76888e-07 -3.78201e-07 -0.00148754 -6.81305e-05 -0.00135232 0.0005 573 0 
1312 1 1 -0.00988124 -0.00374701 0.000949599 0 0 0 4.0648e-07 4.23735e-07 2.7255e-07 -3.95742e-07 -4.01346e-07 -2.83105e-06 0.000135081 -0.000308732 -0.00016949 0.0005 573 0 
481 1 1 -0.00916977 -0.00416892 0.000460446 0 0 0 2.08211e-07 2.51351e-07 2.24416e-07 1.46559e-07 6.10905e-07 -1.37699e-06 -0.000513891 -5.52981e-05 -0.000145493 0.0005 573 0 
1298 1 1 -0.00820986 -0.00428777 0.00045021 0 0 0 7.42329e-07 3.43597e-07 9.23493e-08 4.99756e-06 -3.73776e-06 -2.27264e-06 -0.000614101 0.00170377 0.000482538 0.0005 573 0 
595 1 1 -0.00741741 -0.00363356 0.000483119 0 0 0 1.26708e-06 5.88446e-07 5.78687e-07 -7.06468e-08 -2.24658e-06 2.98387e-06 -0.000436829 0.000186503 -0.00180337 0.0005 573 0 
682 1 1 -0.00640746 -0.00398928 0.000473573 0 0 0 1.28977e-06 1.52889e-06 4.83703e-07 2.60139e-07 2.42591e-06 -1.36231e-06 -0.0011793 0.00185141 -0.0035985 0.0005 573 0 
1164 1 1 -0.00549188 -0.00352207 0.000460797 0 0 0 9.68145e-07 4.47808e-07 8.14621e-07 6.54052e-08 5.55393e-08 -3.23791e-07 0.000386246 0.00217266 0.00211086 0.0005 573 0 
594 1 1 -0.00462106 -0.00442281 0.000482015 0 0 0 -1.29813e-07 1.80249e-06 -6.09953e-07 4.57791e-07 1.28876e-06 -6.07969e-07 -0.00232252 -0.000488415 0.00239835 0.0005 573 0 
1441 1 1 -0.00366689 -0.00436355 0.00046946 0 0 0 -1.96266e-07 1.28755e-06 -1.28338e-07 -3.82612e-07 4.32281e-07 -1.18664e-07 -0.000776183 -0.000124479 -0.00198932 0.0005 573 0 
1623 1 1 -0.00240922 -0.00425269 0.000464365 0 0 0 -9.42893e-08 7.3972e-07 -1.73324e-07 4.46964e-07 -2.24899e-06 1.33205e-06 -0.0017609 0.000527545 3.15826e-05 0.0005 573 0 
279 1 1 -0.0014274 -0.00432382 0.000479695 0 0 0 1.63611e-06 -1.65583e-06 -2.35512e-06 3.3387e-05 1.46369e-07 -1.25026e-06 0.00515092 0.00231227 0.00346866 0.0005 573 0 
1613 1 1 -0.000227736 -0.00403047 0.00056092 0 0 0 3.38354e-06 -7.19446e-06 -8.15394e-07 4.63073e-05 -0.000107153 2.75935e-05 -0.00944463 -0.0039031 0.0127157 0.0005 573 0 
3802 1 1 0.000716865 -0.00413845 0.000468436 0 0 0 1.45055e-06 -2.18794e-06 -3.17208e-07 1.40209e-05 1.72933e-05 5.21361e-06 0.00508528 0.00207211 0.00324119 0.0005 573 0 
4371 1 1 0.00161218 -0.00380028 0.000468842 0 0 0 8.06485e-07 -1.14929e-06 -5.79523e-07 6.05942e-07 1.37991e-06 2.47016e-07 0.000911656 0.000583663 0.000721433 0.0005 573 0 
4346 1 1 0.00239087 -0.00437012 0.000457046 0 0 0 8.14645e-07 -6.06674e-07 -5.78752e-07 5.18432e-06 2.41642e-06 3.585e-06 8.15578e-05 0.00136791 9.86808e-05 0.0005 573 0 
4431 1 1 0.00319381 -0.00382249 0.000452791 0 0 0 3.36525e-07 -2.1312e-07 -4.67708e-07 -6.96359e-07 1.85369e-06 1.11866e-07 0.000249872 2.72962e-05 0.000649931 0.0005 573 0 
4068 1 1 0.00494932 -0.00392385 0.000487206 0 0 0 -1.79342e-07 -4.29784e-08 -2.95399e-07 -1.09183e-08 -1.44918e-06 -3.62401e-08 -0.000282741 -0.000233127 0.000841888 0.0005 573 0 
4697 1 1 0.00585486 -0.00352396 0.000474224 0 0 0 -2.54533e-07 1.94659e-07 -2.83405e-07 -3.30896e-07 5.80004e-07 -6.4715e-08 -0.000403088 -0.000113783 -0.00040454 0.0005 573 0 
3961 1 1 0.00631409 -0.00437042 0.000457968 0 0 0 -3.20828e-07 4.51443e-08 -2.48824e-07 -2.05371e-06 5.61393e-06 -1.20739e-06 0.000275268 -0.000141704 0.000196323 0.0005 573 0 
3617 1 1 0.00718581 -0.00372069 0.000484245 0 0 0 -2.6297e-07 2.37188e-07 -2.2944e-07 5.88288e-07 3.36446e-07 1.17737e-07 -0.000280238 -0.000509609 -0.000235716 0.0005 573 0 
4702 1 1 0.00860394 -0.0038052 0.000459883 0 0 0 3.68807e-07 -5.59269e-06 2.34037e-06 2.98424e-05 -9.50587e-05 2.99667e-05 -0.00754688 -0.00346014 -0.0265729 0.0005 573 0 
4965 1 1 0.00952856 -0.0041576 0.000469611 0 0 0 1.11378e-05 -3.85732e-05 8.98908e-06 -0.000103478 -0.000165269 -0.000124674 0.00532698 0.0229954 0.0990547 0.0005 573 0 
4565 1 1 0.0111379 -0.00385266 0.000491416 0 0 0 -5.35519e-07 1.08185e-07 -4.51545e-09 -1.27654e-05 -5.69376e-06 5.0131e-06 -0.000651697 5.23659e-05 0.000672264 0.0005 573 0 
4329 1 1 0.0119933 -0.00441431 0.000498589 0 0 0 -6.50666e-09 7.81898e-08 -1.96869e-07 -1.46873e-07 -1.10074e-07 -2.68948e-08 0.000521538 -2.45155e-05 0.000499582 0.0005 573 0 
377 1 1 -0.0120272 -0.00276467 0.000622671 0 0 0 1.69663e-07 3.62179e-09 6.49236e-08 -7.83872e-08 2.48028e-07 9.39374e-08 5.70084e-05 1.09539e-05 -0.000160959 0.0005 573 0 
576 1 1 -0.0111225 -0.00340073 0.000536546 0 0 0 1.15653e-07 2.00711e-07 1.55678e-07 -1.98087e-07 4.47082e-07 1.78737e-07 -0.00134197 -0.00100299 -0.000264208 0.0005 573 0 
915 1 1 -0.0102542 -0.00298535 0.000479236 0 0 0 2.71178e-07 2.00488e-07 1.6043e-07 -5.87033e-07 -3.21229e-07 -1.41208e-06 -0.00046641 0.000186046 0.000292273 0.0005 573 0 
1540 1 1 -0.00927659 -0.00313536 0.000484351 0 0 0 5.8811e-07 1.94898e-07 1.65602e-07 3.22132e-07 -2.15758e-06 1.15855e-07 -0.000331015 0.000486497 4.6045e-07 0.0005 573 0 
768 1 1 -0.00831789 -0.00328262 0.000555474 0 0 0 1.32984e-06 1.01912e-06 2.61909e-07 -6.40288e-07 -5.84143e-07 -1.69263e-07 -0.000685032 0.00030437 0.0015468 0.0005 573 0 
1419 1 1 -0.00755382 -0.00264466 0.000500042 0 0 0 2.88701e-06 1.2103e-06 1.1756e-06 -1.80156e-07 -2.47369e-07 -1.50402e-07 0.00256638 -0.00111079 -0.0042835 0.0005 573 0 
1376 1 1 -0.00664163 -0.00304907 0.00046209 0 0 0 1.09252e-06 2.45474e-06 3.4144e-07 -9.41032e-07 -8.12897e-08 2.94253e-07 -0.00184219 0.00208081 0.00624509 0.0005 573 0 
982 1 1 -0.00452597 -0.00348232 0.000699187 0 0 0 1.14536e-06 2.97414e-06 -6.81585e-08 -5.40634e-07 7.84541e-07 -1.90631e-06 0.0029246 0.00203119 -0.00488733 0.0005 573 0 
1272 1 1 -0.00491725 -0.0026116 0.000471316 0 0 0 5.79697e-07 2.95998e-06 3.19218e-07 -3.17909e-07 -1.20437e-07 -1.45265e-07 -0.00681735 -0.000654675 0.0139694 0.0005 573 0 
701 1 1 -0.00392416 -0.00275875 0.000467835 0 0 0 -9.44458e-07 2.09138e-06 -6.5622e-07 -2.87041e-07 1.47903e-07 -4.99278e-07 -0.00257709 0.000865111 0.0036255 0.0005 573 0 
1612 1 1 -0.0032416 -0.00348011 0.000443136 0 0 0 2.6457e-07 1.51401e-06 -4.57207e-07 1.56048e-07 -8.38508e-08 5.85105e-08 -0.00158851 0.000110392 -0.000598514 0.0005 573 0 
1372 1 1 -0.00250921 -0.00261957 0.000468261 0 0 0 -2.95515e-06 3.7729e-06 -1.05512e-06 1.22717e-08 4.62783e-07 -1.60921e-07 -0.00925624 -0.00450583 0.0125979 0.0005 573 0 
1228 1 1 -0.00193569 -0.0033936 0.000475046 0 0 0 6.38585e-07 9.50233e-07 9.36907e-07 7.8385e-08 1.42942e-06 2.8165e-08 0.00238704 0.000400521 -0.00705474 0.0005 573 0 
99 1 1 -0.000986171 -0.00344766 0.000487232 0 0 0 1.12965e-06 -3.47463e-06 -9.01683e-07 -4.1799e-06 -1.89804e-05 -4.75291e-06 0.0056303 0.00430128 -0.0015867 0.0005 573 0 
3765 1 1 -0.000456443 -0.0027543 0.000899479 0 0 0 3.72926e-06 -6.81732e-06 4.27413e-07 2.0786e-07 -3.02685e-06 -4.05185e-07 0.0101597 0.00895102 -0.00401897 0.0005 573 0 
3512 1 1 0.000269655 -0.00321681 0.000462363 0 0 0 8.55406e-07 -2.78573e-06 -1.66166e-06 -8.19559e-06 -1.54817e-06 -2.30628e-06 0.00379341 -0.00135534 0.00280596 0.0005 573 0 
3853 1 1 0.00117131 -0.00293165 0.000413958 0 0 0 1.19029e-06 -1.48023e-06 -2.50639e-07 -4.37498e-07 -7.1911e-07 2.93637e-08 0.00257466 0.0016442 -0.00137095 0.0005 573 0 
4785 1 1 0.00240888 -0.00326645 0.0004654 0 0 0 5.02502e-07 -5.18193e-07 -3.24666e-07 7.76813e-07 -1.21154e-06 -2.67499e-07 0.000795027 0.000775016 0.000224669 0.0005 573 0 
4731 1 1 0.00340268 -0.00287088 0.00052565 0 0 0 -9.69356e-08 1.39261e-07 -2.12519e-07 -3.08637e-07 7.22504e-08 -2.84175e-07 0.000553467 -0.000325595 -0.000116048 0.0005 573 0 
4932 1 1 0.00433374 -0.00313055 0.000471915 0 0 0 -6.6539e-08 7.9638e-08 -2.95124e-07 -4.33147e-07 1.28023e-07 -1.51339e-07 -9.39691e-05 0.000128143 0.000400636 0.0005 573 0 
5033 1 1 0.00522678 -0.0028047 0.000512388 0 0 0 -2.72157e-07 3.31416e-07 -3.80369e-07 -4.05244e-07 3.19925e-07 -2.58186e-08 0.000185017 -0.000180868 0.000331215 0.0005 573 0 
4351 1 1 0.00672735 -0.00274429 0.000455797 0 0 0 -5.32418e-07 3.11207e-07 -3.41129e-07 -1.13745e-07 3.37344e-07 7.75889e-08 -0.000689903 -0.00111418 0.00132426 0.0005 573 0 
3711 1 1 0.00778996 -0.00293885 0.00048451 0 0 0 -4.42794e-07 4.305e-07 -3.44321e-07 -1.15781e-07 8.53471e-08 -5.82908e-09 -0.00091179 -0.00057491 0.000800198 0.0005 573 0 
5082 1 1 0.00937035 -0.00295935 0.000475671 0 0 0 -3.07338e-07 1.47119e-07 -3.56967e-07 1.64266e-06 -1.4379e-06 -4.39117e-08 -0.000237928 -0.000665471 -0.000370395 0.0005 573 0 
4914 1 1 0.0102255 -0.00347832 0.000472184 0 0 0 -2.60264e-06 7.72553e-07 -8.34976e-07 -4.0303e-05 -1.15588e-05 1.11729e-05 0.000179076 -0.00236695 -0.00892514 0.0005 573 0 
5143 1 1 0.0102192 -0.00252099 0.000709742 0 0 0 -8.56431e-08 1.81361e-07 -3.61424e-07 2.24732e-06 1.01584e-06 -5.41702e-07 5.55475e-05 -4.5227e-05 0.000426925 0.0005 573 0 
4653 1 1 0.011054 -0.00278352 0.000404124 0 0 0 -8.13548e-08 1.73826e-07 -1.95077e-07 -2.85274e-07 -4.86916e-07 -2.09146e-07 -0.000305439 -0.000233179 3.82452e-05 0.0005 573 0 
4417 1 1 0.0120264 -0.00342543 0.000474707 0 0 0 -1.0025e-07 1.57987e-07 -6.79659e-08 -7.60311e-07 1.41649e-08 -2.1102e-07 -0.000350935 -0.000218499 -0.000352889 0.0005 573 0 
15 1 1 -0.0116423 -0.00188155 0.000464355 0 0 0 7.89373e-08 1.59783e-07 4.36034e-09 -1.14173e-07 2.68059e-07 -1.75469e-07 -0.000264829 -2.10001e-05 0.000543953 0.0005 573 0 
978 1 1 -0.0106875 -0.00209974 0.00048139 0 0 0 2.81829e-07 1.40238e-07 2.96425e-08 1.88856e-07 7.60129e-07 2.33393e-06 0.00013554 3.15224e-05 -0.000524463 0.0005 573 0 
1169 1 1 -0.00967251 -0.00222855 0.000455039 0 0 0 1.75123e-08 1.24864e-07 -2.56902e-07 -1.76155e-05 -7.05674e-06 -8.04617e-06 -0.000215474 -0.00120353 0.000228234 0.0005 573 0 
761 1 1 -0.00864553 -0.0023552 0.000463711 0 0 0 1.16034e-06 6.13349e-07 5.52345e-08 -2.05565e-06 -1.47805e-06 -1.47705e-06 -0.00112818 0.00200919 -0.00204402 0.0005 573 0 
1699 1 1 -0.00826502 -0.00163037 0.000993651 0 0 0 2.79084e-06 1.05066e-06 -2.3682e-08 -5.01728e-07 1.03259e-05 7.93549e-07 -0.000947733 0.000288555 0.0012444 0.0005 573 0 
1460 1 1 -0.00743331 -0.00165597 0.000474567 0 0 0 3.42187e-06 2.16098e-06 1.42998e-07 -1.75327e-06 1.11134e-06 -1.56131e-06 -0.00434174 0.0045677 0.00569218 0.0005 573 0 
56 1 1 -0.00587039 -0.00246371 0.000463146 0 0 0 2.89642e-06 2.02627e-06 8.61788e-08 -1.79008e-07 -2.04861e-07 -1.60041e-07 0.000170378 0.00222922 -0.0158283 0.0005 573 0 
1309 1 1 -0.00422658 -0.00182357 0.000444317 0 0 0 7.01555e-06 6.06981e-06 1.93186e-07 -4.29091e-07 -1.71601e-07 -1.72201e-07 -0.00585615 0.0101599 -0.0276334 0.0005 573 0 
524 1 1 -0.00231877 -0.00167069 0.000581933 0 0 0 5.80831e-06 3.40208e-07 4.62594e-06 -8.42561e-07 5.27061e-06 1.10857e-06 0.0137893 -0.023694 -0.0451134 0.0005 573 0 
1388 1 1 -0.00155214 -0.00232364 0.000499999 0 0 0 0.00732889 -0.0139448 -4.068e-12 -3.41438e-06 9.11359e-07 0 17.7318 -23.3983 -607.611 0.0005 573 0 
4388 1 1 2.55288e-06 -0.00205171 0.000455227 0 0 0 3.13034e-06 -2.72637e-06 -4.62967e-07 -4.02149e-07 -4.12102e-08 -2.02509e-07 0.00431763 0.00574513 -0.0115087 0.0005 573 0 
4662 1 1 0.000797341 -0.00226323 0.000967024 0 0 0 1.65471e-06 -4.27417e-06 -7.65442e-07 -6.43606e-07 1.21702e-08 -2.38775e-07 -0.00248489 -0.00160508 0.00597546 0.0005 573 0 