ITEM: TIMESTEP
6888000
ITEM: NUMBER OF ATOMS
9900
ITEM: BOX BOUNDS mm pp mm
-0.01 0.01
-0.0075 0.0075
0 0.03
ITEM: ATOMS id type type x y z ix iy iz vx vy vz fx fy fz omegax omegay omegaz radius f_Temp[0] f_heatSource[0] f_heatFlux[0] c_coord[0] 
1360 1 1 -0.00939445 -0.00667567 0.000499737 0 0 0 -2.16812e-06 -0.000195675 -1.95377e-05 -1.05983e-05 1.6891e-05 7.85822e-05 -0.233409 0.321483 1.24408 0.000501247 739.29 0.00418867 -0.00418778 3 
1101 1 1 -0.00820387 -0.00745476 0.000504541 0 0 0 4.88718e-05 0.00154677 0.00134491 -0.000124591 -0.000153623 0.000105956 1.10914 -3.11756 2.10933 0.000504468 1168.8 0.00418867 -0.00411149 1 
1795 1 1 -0.00665819 -0.00663635 0.000509488 0 0 0 0.00180173 0.00184247 0.000755934 0.00125824 0.000748927 0.000369393 3.50789 -4.42377 8.17816 0.000504703 1200.07 0.00418867 -0.00418205 3 
2282 1 1 -0.00611383 -0.00748586 0.000504159 0 0 0 0.00153732 0.000890605 0.000146601 0.000136142 0.000103033 0.000247792 -1.4827 3.25845 -9.84324 0.000505165 1261.7 0.00418867 -0.00418436 2 
1904 1 1 -0.00499619 -0.00716368 0.000504534 0 0 0 0.000309424 -3.407e-05 0.000107029 -0.000585135 -0.000556472 3.57653e-05 0.0529062 0.591883 0.352327 0.000506147 1392.61 0.00418867 -0.00418696 2 
2537 1 1 -0.00375465 -0.00666243 0.000503622 0 0 0 2.77685e-05 -0.000316438 -6.08601e-05 -0.000646301 -0.0005942 0.000296186 0.536762 -0.0506771 -0.570002 0.000506606 1453.8 0.00418867 -0.004195 4 
1266 1 1 -0.00257941 -0.00723381 0.000504156 0 0 0 9.90475e-05 -0.000402694 -0.000264265 -0.000454451 -0.00063947 0.000538936 0.727147 0.12526 -0.425028 0.000507133 1524.08 0.00418867 -0.00418695 3 
599 1 1 -0.0013711 -0.00672957 0.000505963 0 0 0 0.00022148 -0.000666435 -0.000213279 -0.000586651 -0.00035889 9.04399e-05 0.842969 0.78873 0.157409 0.000507443 1565.43 0.00418867 -0.00418507 2 
1338 1 1 -0.000197768 -0.0066949 0.000506684 0 0 0 0.00013844 -0.000488076 -0.000133482 0.000452109 3.63277e-05 0.000268458 -0.334981 -0.329337 0.441978 0.000507504 1573.47 0.00418867 -0.0041868 3 
1295 1 1 -0.00950005 -0.00567994 0.000499752 0 0 0 -0.00015718 -0.000760339 0.000199899 6.7964e-05 0.000130123 -1.3951e-05 1.33618 -0.476781 -1.60126 0.000501102 719.927 0.00418867 -0.00419059 3 
620 1 1 -0.00856918 -0.0060521 0.000500233 0 0 0 7.32009e-05 -0.000145796 5.07213e-05 -7.80976e-05 -0.000206455 0.000289275 0.362655 -0.0389525 3.90978 0.000502385 891.054 0.00418867 -0.00419306 5 
2577 1 1 -0.00765147 -0.00646426 0.0005033 0 0 0 0.000902709 0.000316775 -0.000265456 0.000281063 -0.000559838 0.000467639 -1.63801 1.74308 -4.12848 0.000503841 1085.17 0.00418867 -0.00417711 4 
1283 1 1 -0.00678554 -0.00563582 0.000503838 0 0 0 -0.000115707 0.00177094 0.000205226 -0.000275766 0.000281534 0.000232737 -3.72701 0.242239 -4.46311 0.000504672 1195.98 0.00418867 -0.00418479 3 
2369 1 1 -0.00577885 -0.00566542 0.000502214 0 0 0 -0.000130386 -0.000139406 1.12067e-05 -0.000296497 -0.000119094 0.000197461 0.183885 0.0148443 0.773627 0.000505491 1305.1 0.00418867 -0.00418527 5 
574 1 1 -0.00479515 -0.00589165 0.00050141 0 0 0 -0.000172704 -0.000403493 -4.97633e-05 -0.00060214 -0.00060494 0.000388853 0.847416 -0.306711 -1.28217 0.000506068 1382.13 0.00418867 -0.00418627 4 
227 1 1 -0.0038895 -0.0057535 0.000925294 0 0 0 -0.00014837 -0.000387748 -0.000210803 -0.000958868 -0.000404329 0.000870719 -1.00186 0.802274 1.30379 0.000506507 1440.59 0.00418867 -0.0041867 5 
219 1 1 -0.00283508 -0.00624032 0.000590749 0 0 0 -0.00613143 0.00388626 0.0509799 -3.92998e-06 -2.79056e-06 -7.41788e-07 -407.837 -297.408 -29.8032 0.000508961 1767.84 0.00418867 -0.00414375 1 
1180 1 1 -0.000807569 -0.00588825 0.000504186 0 0 0 0.000280426 -0.000677437 -0.000261649 -0.000390839 9.17458e-05 0.000949178 0.696406 0.335756 -0.527962 0.000507455 1567.02 0.00418867 -0.00418273 5 
2725 1 1 -0.00950173 -0.00457648 0.000499807 0 0 0 -9.63189e-05 1.80578e-05 -5.06498e-05 5.31214e-06 -0.000423295 5.16564e-05 -0.075362 -0.0699736 0.157694 0.000501441 765.094 0.00418867 -0.00418759 3 
1145 1 1 -0.00862608 -0.00505253 0.000585738 0 0 0 -0.00100289 -0.00119732 0.00142473 -0.000224067 -0.000630302 0.00101264 3.04663 -4.85032 -2.83275 0.000502616 921.761 0.00418867 -0.00419132 3 
1012 1 1 -0.00774579 -0.00549706 0.00076717 0 0 0 -0.000375111 3.90236e-05 0.00113888 -0.000245053 -0.000475662 0.00129636 5.32296 1.10211 7.47319 0.000503754 1073.59 0.00418867 -0.00418628 4 
218 1 1 -0.0075509 -0.00454076 0.000501028 0 0 0 -1.31852e-05 -0.000426553 -4.36021e-05 -0.000788631 9.8427e-05 0.000212193 0.659548 -0.111451 -0.511715 0.000503922 1095.94 0.00418867 -0.00418629 3 
1378 1 1 -0.00650098 -0.004543 0.000502019 0 0 0 -9.48535e-05 -0.000285657 -8.5146e-05 -0.000670987 0.000112336 0.000259016 0.40727 -0.0844689 -0.367113 0.000504891 1225.19 0.00418867 -0.00418589 4 
2561 1 1 -0.00509473 -0.00492339 0.000504229 0 0 0 -0.000491571 0.000161008 -0.000139625 -8.65315e-05 0.000175456 0.000408856 -0.594648 -0.558522 0.143846 0.000505914 1361.58 0.00418867 -0.00418547 3 
1823 1 1 -0.00416983 -0.00451715 0.000504127 0 0 0 -0.000527287 4.5816e-05 -5.41762e-05 0.000128292 0.000436334 0.000728384 -0.0794763 -0.541243 -0.192402 0.000506272 1409.21 0.00418867 -0.00418553 3 
323 1 1 -0.00312171 -0.00525144 0.000502051 0 0 0 -0.000537008 -5.83811e-05 -0.000221124 -0.000249387 -0.000552499 0.000993552 0.335841 -1.1471 0.185814 0.000506826 1483.11 0.00418867 -0.00418393 4 
615 1 1 -0.00214153 -0.00549909 0.000504446 0 0 0 -0.000340493 -0.000692095 2.11895e-05 6.24215e-05 -3.3015e-05 0.000610515 1.08235 -0.132151 -1.69137 0.000507188 1531.41 0.00418867 -0.00418073 3 
1959 1 1 -0.00126792 -0.00498975 0.0005041 0 0 0 6.33159e-06 -0.000809335 0.000143379 -0.000384943 0.000855119 0.00127462 0.691187 0.198579 1.17084 0.000507376 1556.45 0.00418867 -0.00417965 5 
2212 1 1 -0.00949745 -0.00350605 0.000502554 0 0 0 0.000253184 -0.0464511 0.000247367 2.8808e-07 -6.31638e-06 1.52875e-05 1251.64 47.5898 416.856 0.000502557 913.922 0.00418867 -0.00417074 1 
413 1 1 -0.00864874 -0.00405031 0.000501075 0 0 0 -1.24343e-05 -0.000302834 7.31328e-05 -4.46639e-05 -9.52698e-05 -2.10693e-05 0.668903 -0.0591243 -0.724853 0.00050256 914.278 0.00418867 -0.00418443 3 
1175 1 1 -0.00777247 -0.00355876 0.000512356 0 0 0 0.000173407 -0.000500083 -5.26998e-05 -0.000677565 0.000606559 0.000381837 -0.614941 0.525496 0.043766 0.00050374 1071.72 0.00418867 -0.00418357 4 
1741 1 1 -0.00573391 -0.00388791 0.000504486 0 0 0 -0.000189064 -0.000134173 -4.49566e-05 -3.99032e-05 -0.0002019 0.000407852 0.203728 0.130967 0.86239 0.00050546 1300.96 0.00418867 -0.00418603 3 
2011 1 1 -0.00474477 -0.00368592 0.00050425 0 0 0 -0.000364091 0.000128984 -0.000153512 -0.000184112 0.000161943 0.000613468 0.0501363 -0.31286 -0.269463 0.000506012 1374.61 0.00418867 -0.0041862 4 
2717 1 1 -0.00284701 -0.00388589 0.000535758 0 0 0 -0.0163949 -0.000148048 0.00294566 7.94923e-05 -4.48993e-05 0.000170629 -27.1311 7.68148 -77.4492 0.000510803 2013.42 0.00418867 -0.00413821 1 
1726 1 1 -0.00190685 -0.00426835 0.000807125 0 0 0 -0.000552606 -0.00109729 0.000231484 0.000418499 0.00189834 0.00158897 -0.870341 0.173236 0.0657373 0.000507279 1543.58 0.00418867 -0.00418197 4 
309 1 1 -0.000827257 -0.00408035 0.000514099 0 0 0 3.04061e-05 -0.000782852 0.000785742 0.000238275 0.000748442 0.00198336 -2.1104 -6.25857 -1.08032 0.000507469 1568.83 0.00418867 -0.004177 3 
5886 1 1 -2.3056e-05 -0.00352597 0.000776783 0 0 0 0.000255086 -0.00067416 0.00089963 0.000375079 0.000431271 0.00166811 -0.810574 3.67157 0.252904 0.000507497 1572.62 0.00418867 -0.00417865 5 
616 1 1 -0.00872377 -0.00281834 0.000609916 0 0 0 -0.0154136 -0.0143011 -0.0134926 8.1683e-06 -6.02955e-05 4.47076e-05 -338.536 201.684 -375.224 0.000504164 1128.26 0.00418867 -0.00410039 1 
1246 1 1 -0.00771698 -0.00255381 0.000501027 0 0 0 -0.000349384 -0.000200458 -0.000172068 -6.61423e-05 0.000781171 6.30058e-05 0.221837 -0.390934 1.21427 0.000503839 1084.83 0.00418867 -0.00418363 4 
2278 1 1 -0.00685667 -0.00314041 0.00053271 0 0 0 -0.00112216 0.00248372 -0.00819986 -0.000332815 -0.000485931 7.10217e-05 -228.644 -87.5896 1.57135 0.000504621 1189.12 0.00418867 -0.00418555 2 
1466 1 1 -0.00589429 -0.00284002 0.000501814 0 0 0 -0.000200537 -0.000163033 -0.000236593 -0.000492975 0.000253741 -7.40202e-05 0.281907 -0.190154 0.202867 0.000505358 1287.46 0.00418867 -0.00418733 4 
2724 1 1 -0.00489669 -0.00268709 0.000501281 0 0 0 -0.00045096 0.000197989 -0.000202068 -0.00012519 0.000639452 0.000396156 -0.370712 -0.594116 0.482582 0.000505853 1353.34 0.00418867 -0.0041875 4 
1241 1 1 -0.00382841 -0.00325318 0.000505412 0 0 0 -0.000503477 0.000164909 -4.50935e-05 -0.000518536 0.000289896 0.000626236 -0.142387 -1.01478 -0.118246 0.000506581 1450.4 0.00418867 -0.00418469 2 
1863 1 1 -0.00285377 -0.00286842 0.000505206 0 0 0 -0.000513796 0.000162154 -2.4794e-05 -0.000121612 -0.000701305 0.00095749 0.0334588 -0.852507 -1.0174 0.000507049 1512.91 0.00418867 -0.0041803 4 
536 1 1 -0.00193884 -0.00330382 0.000505006 0 0 0 -0.00031394 -0.000597414 0.000120487 0.000408651 0.00106157 0.0012846 0.840111 -0.409477 -0.273408 0.00050727 1542.32 0.00418867 -0.00417777 4 
1281 1 1 -0.000893529 -0.00307006 0.000504109 0 0 0 0.000228585 -0.000370683 0.000166347 8.03031e-05 0.000203586 0.00189193 0.775721 0.402874 0.138001 0.000507452 1566.65 0.00418867 -0.00417667 4 
2621 1 1 -0.00949735 -0.00218226 0.000502879 0 0 0 0.000148896 0.0136854 0.00117579 -1.11095e-07 2.1479e-08 5.68579e-09 171.992 -102.603 405.952 0.000502649 926.243 0.00418867 -0.00417812 0 
1846 1 1 -0.00838265 -0.0019174 0.000909506 0 0 0 -0.00816629 -0.0085558 0.000405599 0.000320874 0.000622405 -0.000213565 -7.22304 8.36776 27.1977 0.000503647 1059.21 0.00418867 -0.00417182 3 
1853 1 1 -0.00681917 -0.00209614 0.000501967 0 0 0 -0.000207059 -0.000759441 -0.000122386 -0.000449735 0.000881293 0.000169933 1.44119 -0.262833 -2.46798 0.000504377 1156.63 0.00418867 -0.00418552 3 
112 1 1 -0.00583852 -0.00183346 0.000507566 0 0 0 0.000240517 -0.000108136 -0.000293999 -0.00177082 0.000722268 0.000422274 -0.18708 2.02322 -0.983232 0.000505426 1296.45 0.00418867 -0.00418835 3 
2210 1 1 -0.00433553 -0.00165844 0.000960644 0 0 0 -0.00114736 0.000466328 -0.000136509 0.00079549 0.00108468 0.000926779 0.450429 -0.656352 0.390739 0.000506396 1425.78 0.00418867 -0.00418766 5 
2470 1 1 -0.00365882 -0.0022552 0.000505137 0 0 0 -0.000546571 0.000438361 -0.000236084 -0.000367322 -0.000155745 0.000916095 -0.58487 -0.118368 0.416977 0.000506743 1472.11 0.00418867 -0.00418176 4 
1770 1 1 -0.00201891 -0.00229518 0.000505404 0 0 0 0.00012352 -0.000246582 0.000327916 -0.000664612 -0.000157739 0.000846715 -0.00671879 0.216257 -0.549082 0.000507227 1536.63 0.00418867 -0.00417918 5 
2727 1 1 -0.00110184 -0.00216948 0.000914252 0 0 0 5.85408e-05 -0.000323188 0.000542424 -9.06401e-05 -0.000364927 0.00154764 -0.437163 0.156575 0.278611 0.000507414 1561.57 0.00418867 -0.00418057 8 
6561 1 1 -0.000176771 -0.00219142 0.000504819 0 0 0 8.72043e-05 -0.00033414 8.3051e-05 3.58184e-05 0.000157881 0.000951633 0.505134 0.199875 -0.156883 0.00050748 1570.4 0.00418867 -0.00418076 4 
2478 1 1 -0.00884268 -0.00111999 0.000502802 0 0 0 -0.00804007 -0.0075686 0.000212317 -0.000358266 -4.08964e-05 -3.64948e-05 14.1779 -18.6161 -22.3143 0.000502808 947.445 0.00418867 -0.00414234 2 
2421 1 1 -0.00796893 -0.000611146 0.000501562 0 0 0 -0.00055818 0.000877409 -0.00022994 -0.000675145 0.000552227 0.00016194 -1.75741 -1.14513 -4.14255 0.000503418 1028.77 0.00418867 -0.00419417 3 
2518 1 1 -0.00704114 -0.00110288 0.000533124 0 0 0 -0.026885 -0.00177279 0.0120699 2.36042e-05 0.000184385 -1.53919e-05 59.0523 24.1312 243.127 0.000507701 1599.74 0.00418867 -0.00414248 1 
143 1 1 -0.00559166 -0.000855484 0.000503908 0 0 0 -5.32476e-05 3.66579e-05 -0.000400183 -0.000216715 0.00042596 0.000542125 0.200233 0.365268 1.29317 0.000505707 1333.96 0.00418867 -0.00418782 5 
74 1 1 -0.0045834 -0.00079521 0.000503049 0 0 0 -0.000450956 0.000362985 -0.000104329 0.000404041 0.000753575 0.000138992 -0.329855 -1.11616 -0.720552 0.000506229 1403.47 0.00418867 -0.00418968 5 
1293 1 1 -0.00305067 -0.00149183 0.000775378 0 0 0 -0.000515345 6.79e-05 -0.000423808 9.51658e-06 -2.72014e-05 0.00167542 0.909676 -0.187959 -1.01665 0.000506884 1490.86 0.00418867 -0.00418481 5 
2611 1 1 -0.0036784 -0.000716063 0.000947085 0 0 0 -0.000441148 0.000192828 9.29955e-05 0.000151759 0.000821539 0.000889724 -0.26497 0.580385 0.216028 0.000506655 1460.27 0.00418867 -0.00418831 5 
115 1 1 -0.00209673 -0.00128604 0.000503894 0 0 0 -0.000226265 -0.000113315 0.000191719 -9.24198e-05 -0.000273249 0.000766189 0.15457 -0.642662 1.00059 0.000507156 1527.17 0.00418867 -0.00418274 4 
1496 1 1 -0.00278523 -0.000545209 0.000502985 0 0 0 -0.000222335 -0.000181216 0.00015008 0.000702248 6.18428e-05 0.000951557 0.758612 -0.388154 -1.13665 0.000507002 1506.66 0.00418867 -0.00418741 4 
2195 1 1 -0.00106237 -0.00124348 0.000506516 0 0 0 3.8092e-06 4.96839e-05 0.000578781 -0.000981438 -0.00110753 0.000642012 0.743486 0.169426 -0.176579 0.000507462 1567.96 0.00418867 -0.00418062 3 
5605 1 1 -5.12934e-05 -0.00118636 0.000505913 0 0 0 0.000395945 -0.000167776 0.000106684 -0.000556465 0.000122857 0.000529762 0.101974 0.953189 -0.316852 0.000507516 1575.07 0.00418867 -0.00418229 5 
2166 1 1 -0.0094997 -0.000361225 0.000499581 0 0 0 -0.000231218 3.88432e-05 -0.000179058 0.000206081 0.000167347 0.00015386 0.000438319 -0.324014 0.0672962 0.000500919 695.576 0.00418867 -0.00418703 4 
754 1 1 -0.00862881 0.000146206 0.000508228 0 0 0 0.000194963 0.00121904 -0.000581425 -0.000505147 0.000236126 -0.000590664 2.26728 -0.076676 2.56815 0.000502734 937.541 0.00418867 -0.00418992 3 
783 1 1 -0.00710507 -9.34315e-05 0.000502811 0 0 0 -0.000217594 0.000164842 -0.000183185 -0.000412584 -1.00506e-05 3.98523e-06 -0.548887 -0.290504 1.9837 0.000504227 1136.59 0.00418867 -0.00418983 5 
233 1 1 -0.00610311 1.38877e-05 0.000499794 0 0 0 -0.000216896 0.000288007 -0.000270529 -0.000497749 -0.00043123 0.000401723 -0.528834 -0.09764 -1.19028 0.000505256 1273.79 0.00418867 -0.00419029 5 
129 1 1 -0.00513539 3.44423e-06 0.000777183 0 0 0 -0.000593227 3.91058e-05 -0.000363685 0.000194753 0.000352256 0.000368049 0.769857 0.150706 0.770967 0.000505918 1362.1 0.00418867 -0.00419065 7 
2061 1 1 -0.00417051 0.000127554 0.000505062 0 0 0 -0.00060084 0.000794166 -6.46627e-05 -0.000228308 0.00038933 -0.000214221 -1.3536 -1.15759 1.28013 0.00050638 1423.69 0.00418867 -0.00419069 3 
2327 1 1 -0.00230272 0.000346354 0.000503306 0 0 0 -0.000154037 0.000419589 0.000265554 -0.000165819 -6.79199e-05 0.000858686 -0.489497 0.157155 1.07673 0.000507178 1530.06 0.00418867 -0.0041868 4 
109 1 1 -0.00161266 -0.000394113 0.000504508 0 0 0 -1.00586e-06 0.000716469 0.00067346 -0.00114096 -0.0011727 0.00125315 -1.52647 0.237052 -0.634301 0.000507359 1554.23 0.00418867 -0.00418367 3 
1095 1 1 -0.000528118 -0.000260367 0.000503648 0 0 0 -3.14097e-05 0.00018072 5.7116e-05 -0.000951044 0.000662782 0.00067699 -0.255561 0.266259 -2.4605 0.000507551 1579.74 0.00418867 -0.0041868 2 
2321 1 1 -0.00950032 0.000640366 0.000500367 0 0 0 -0.000112775 3.66143e-05 9.40664e-06 -0.00015559 0.000518941 -0.000230147 0.0625299 0.00587133 -0.180078 0.000501209 734.151 0.00418867 -0.00418775 3 
2262 1 1 -0.00863205 0.00118188 0.000549926 0 0 0 -0.0123545 -0.0207207 0.0102365 -5.64253e-05 4.82862e-05 -1.00477e-05 64.4279 -20.4787 28.2613 0.000504448 1166.01 0.00418867 -0.00415735 1 
1880 1 1 -0.00776789 0.000664706 0.000501453 0 0 0 0.00021566 0.000553851 -0.000234337 -0.000245132 4.6449e-05 -0.000129467 -0.438062 0.219229 -3.48035 0.000503699 1066.22 0.00418867 -0.00419168 5 
2309 1 1 -0.00638441 0.00109095 0.000502931 0 0 0 -0.0011421 0.000367609 -0.000481683 -0.000865061 -0.000225395 0.000592039 0.464224 -2.32319 2.68839 0.00050499 1238.4 0.00418867 -0.00420656 3 
386 1 1 -0.00520797 0.000976774 0.000506833 0 0 0 5.86733e-06 -0.00307436 -0.00135817 -0.00121293 0.00113695 0.000725863 1.65022 3.68325 -7.74274 0.000506802 1479.9 0.00418867 -0.00384567 1 
2516 1 1 -0.0041402 0.00125587 0.000512969 0 0 0 0.0313278 0.0179857 -0.0189349 2.83839e-05 -1.80634e-05 3.86313e-05 -181.146 -250.325 678.888 0.000509466 1835.11 0.00418867 -0.00414424 1 
2382 1 1 -0.00328009 0.000605299 0.000504329 0 0 0 -0.000415485 0.000870466 -1.93294e-06 0.000226167 -0.000477518 0.000524921 -1.7763 -0.655929 -1.48567 0.000506809 1480.85 0.00418867 -0.00419256 3 
2566 1 1 -0.00248604 0.00134501 0.000508091 0 0 0 0.00041557 -0.00042324 -0.000238824 0.000937466 -8.23743e-05 0.00130815 0.90275 0.852239 -1.12927 0.000508121 1655.83 0.00418867 -0.00416255 1 
178 1 1 -0.000981267 0.000697652 0.000503001 0 0 0 0.00020686 0.000439285 0.000306556 -0.0004699 0.00120576 0.000779454 -0.849139 0.336177 -0.789276 0.000507568 1582.09 0.00418867 -0.00418633 3 
654 1 1 -0.000104544 0.00120791 0.000511342 0 0 0 0.00046541 0.000112184 0.000194113 -0.000429264 0.000474029 0.000221672 0.115205 -0.0674812 0.149028 0.000507606 1587.15 0.00418867 -0.00418642 6 
628 1 1 -0.00949916 0.00168846 0.000499949 0 0 0 -5.28301e-05 8.23926e-05 -8.44121e-05 -0.000364589 1.63452e-07 5.98499e-05 -0.160855 -0.0809213 -0.311958 0.000501035 711.06 0.00418867 -0.00419268 3 
786 1 1 -0.00862596 0.0021858 0.000665196 0 0 0 0.0174781 -0.0152535 0.0157616 -1.12059e-05 7.28036e-05 4.91026e-05 -39.0401 -147.694 -94.4891 0.000504401 1159.82 0.00418867 -0.00411932 1 
1456 1 1 -0.00732286 0.00156738 0.000501986 0 0 0 -0.000225074 0.000796292 -0.000440749 -0.0014935 0.000613855 -0.000156246 -1.2774 -0.370564 4.65084 0.000504085 1117.73 0.00418867 -0.00419227 4 
449 1 1 -0.00646592 0.00209575 0.00050229 0 0 0 -0.000551613 0.000649486 -0.000455407 -0.000370874 9.82602e-05 0.000220507 -0.976861 -1.17237 -4.187 0.000504865 1221.7 0.00418867 -0.00419867 5 
1906 1 1 -0.00465174 0.00221643 0.000503932 0 0 0 -0.000500202 0.000112466 -0.000295243 0.000547577 5.28069e-05 -9.50303e-05 -0.126257 -0.853909 -2.36475 0.000506227 1403.24 0.00418867 -0.00419507 3 
2667 1 1 -0.00342462 0.00201145 0.000510041 0 0 0 -0.00501213 0.0281585 -0.000820856 0.000117787 -0.000475568 0.000855016 -33.6925 -8.01572 -640.247 0.000510047 1912.61 0.00418867 -0.00427169 1 
513 1 1 -0.000917167 0.00181322 0.000505224 0 0 0 0.00026952 6.68757e-05 0.000202083 -3.50049e-05 0.000631601 0.000328359 -0.191309 0.474946 0.126304 0.000507594 1585.52 0.00418867 -0.00418889 3 
1161 1 1 -0.00914374 0.00304775 0.000499377 0 0 0 -0.000171063 0.000322218 -0.000219137 -0.000185747 -0.000284267 -0.000321008 -0.426405 -0.274629 -0.021929 0.000501733 804.11 0.00418867 -0.00419067 4 
1700 1 1 -0.00767927 0.00250897 0.00053067 0 0 0 -0.00100913 0.000930242 -0.0013942 -0.00208256 -2.72361e-05 -0.000934747 4.71149 -13.9512 -3.83978 0.000503897 1092.61 0.00418867 -0.00419689 2 
384 1 1 -0.00676935 0.00306433 0.000506098 0 0 0 0.00541023 0.00939623 0.0011323 -0.000192902 0.000149688 -4.50894e-06 -27.4949 12.3927 21.2258 0.000505958 1367.45 0.00418867 -0.00411037 1 
469 1 1 -0.00558981 0.00259185 0.000505116 0 0 0 -8.81886e-05 -0.000142562 -0.000250264 0.000233441 -0.000749858 0.000101012 0.506122 0.360628 2.30469 0.000505709 1334.23 0.00418867 -0.00419554 3 
2218 1 1 -0.00491258 0.00333923 0.000501986 0 0 0 -0.00039241 0.000171869 -9.0406e-05 -0.000135068 -0.000318137 9.79344e-05 -0.141028 -0.454627 -1.08947 0.000506165 1394.99 0.00418867 -0.00419476 5 
1002 1 1 -0.00397233 0.002965 0.000503876 0 0 0 -0.000140265 -0.000243438 -0.000152964 -2.43104e-05 -4.01657e-05 1.84022e-05 0.416987 0.167712 1.02893 0.000506553 1446.68 0.00418867 -0.00419229 4 
426 1 1 -0.00256886 0.00260753 0.000521935 0 0 0 0.10587 -0.0332517 -0.0151843 3.95356e-05 9.86169e-05 5.54957e-05 28.2939 -29.8962 264.067 0.000510658 1994.03 0.00418867 -0.00415194 1 
1018 1 1 -0.001586 0.00295389 0.000504872 0 0 0 6.4057e-06 2.08716e-05 -2.98319e-05 -0.000835734 2.60798e-05 0.000419219 -0.471851 -0.206179 -0.577382 0.000507475 1569.73 0.00418867 -0.00418961 3 
885 1 1 -0.000576525 0.00303502 0.000513422 0 0 0 -0.000125816 -0.00030942 -1.84605e-05 -0.000978506 0.000278417 0.000600995 -0.778116 0.146205 0.00661565 0.000507584 1584.19 0.00418867 -0.00418635 3 
1397 1 1 -0.00949932 0.00398479 0.0005005 0 0 0 4.64759e-05 0.000278327 -0.000282287 0.00018423 -1.79101e-05 -0.000248723 -0.482484 0.493861 0.186126 0.000501175 729.625 0.00418867 -0.00418839 2 
358 1 1 -0.00855768 0.00379193 0.000886564 0 0 0 0.000374263 0.000806473 -0.000314271 -0.000777119 -0.000522564 -0.000465689 0.599274 -0.245321 -1.7391 0.00050276 941.04 0.00418867 -0.00419283 4 
2563 1 1 -0.00767257 0.00351512 0.000500273 0 0 0 9.64025e-05 0.000852515 -1.30389e-05 -0.000560179 -0.000393017 -0.000205297 -1.8503 -0.0383149 1.67769 0.000503523 1042.75 0.00418867 -0.00419823 5 
1403 1 1 -0.00635246 0.00413867 0.000504662 0 0 0 -0.000152215 0.000888083 -0.00021761 -0.000823587 -0.00107074 -0.000316506 -1.14201 0.0379382 0.590345 0.000505307 1280.55 0.00418867 -0.00419585 2 
263 1 1 -0.00534384 0.00425277 0.000504365 0 0 0 -0.000106243 0.000334142 -0.00042863 -0.000219777 -0.000350857 -4.79476e-05 -0.64642 -0.495234 -0.0460919 0.00050582 1349.05 0.00418867 -0.00419708 4 
136 1 1 -0.00433721 0.00417079 0.000502952 0 0 0 -0.000142926 0.000162612 2.05822e-05 -0.000271241 -8.38992e-05 2.23766e-06 -0.161686 -0.204978 0.20721 0.000506284 1410.92 0.00418867 -0.00419353 4 
963 1 1 -0.003149 0.00355577 0.000505094 0 0 0 -9.60784e-06 -0.000174122 -0.000152103 6.57173e-06 -0.000118107 8.49976e-05 0.445903 -0.133088 -1.49899 0.000506954 1500.25 0.00418867 -0.00418946 3 
632 1 1 -0.00229728 0.00410422 0.000504867 0 0 0 -0.000101959 0.000101505 7.15448e-05 -0.000127869 0.000264532 -0.000105138 -0.606391 -0.299547 2.03637 0.000507198 1532.73 0.00418867 -0.00419035 3 
1421 1 1 -0.000603553 0.00418878 0.000504568 0 0 0 3.19394e-05 -3.35582e-05 1.75315e-05 -0.000247836 -1.45015e-05 0.000369145 0.0362551 0.00998272 1.35398 0.000507539 1578.17 0.00418867 -0.00418926 4 
76 1 1 -0.00950178 0.00526221 0.000508786 0 0 0 6.86546e-05 1.93273e-05 0.000120587 -0.000267415 0.000252488 -0.000445603 -1.68116 -0.29992 0.166581 0.00050144 764.982 0.00418867 -0.00418893 3 
508 1 1 -0.00866575 0.00471101 0.000500507 0 0 0 0.000538488 0.000422252 -1.38772e-05 -0.000626135 -5.9066e-05 0.000167954 -0.312777 1.59225 1.00288 0.000502561 914.42 0.00418867 -0.00418913 4 
758 1 1 -0.00767944 0.00452002 0.000512254 0 0 0 4.60603e-05 0.000553448 -0.000438124 -0.000422958 -0.000321458 -5.96254e-05 1.0901 -1.05685 -1.04639 0.00050362 1055.66 0.00418867 -0.004196 5 
2412 1 1 -0.006817 0.00503844 0.000502892 0 0 0 5.30546e-05 0.000304249 0.000142567 -0.000604487 -0.000385076 -1.06967e-05 -0.925512 -0.0545051 -0.0099494 0.000504428 1163.43 0.00418867 -0.00419948 5 
1166 1 1 -0.00581471 0.00514413 0.000507828 0 0 0 -0.000149588 0.000103836 -0.00047157 -0.000444593 -0.000366581 -6.38138e-05 0.322682 1.29474 0.0445523 0.000505352 1286.58 0.00418867 -0.0041978 3 
222 1 1 -0.00402285 0.00527759 0.000502609 0 0 0 -5.65796e-05 -6.46916e-05 8.61317e-05 -0.000372755 -1.56046e-05 -0.000275106 0.171335 0.0928188 -0.60235 0.000506557 1447.21 0.00418867 -0.0041911 6 
2679 1 1 -0.00329558 0.00457277 0.000504927 0 0 0 -0.000191917 0.000102454 -4.22288e-05 -0.000325435 8.0227e-06 -7.90404e-05 -0.359719 -0.0410257 0.693251 0.000506867 1488.6 0.00418867 -0.00419166 3 
2253 1 1 -0.00243594 0.00510578 0.000504152 0 0 0 -0.000222322 -0.000354414 2.83769e-06 -0.000376534 -2.995e-05 -0.000162816 0.62372 -0.455519 -1.48148 0.000507142 1525.25 0.00418867 -0.00419088 5 
1233 1 1 -0.00147426 0.00479017 0.00050566 0 0 0 -4.58675e-05 -0.000279196 7.05503e-05 -0.000289266 -0.00028717 8.71555e-05 0.401845 0.113013 1.60612 0.000507385 1557.69 0.00418867 -0.00419106 4 
2032 1 1 -0.000549403 0.00520078 0.000505564 0 0 0 -8.38233e-05 -3.45512e-05 1.26799e-05 0.000163663 -0.000213936 -9.74543e-05 -0.0408542 -0.095204 -1.09851 0.000507503 1573.35 0.00418867 -0.00419096 4 
1503 1 1 -0.00866039 0.00580414 0.000500373 0 0 0 0.000128947 -0.000169318 0.000109034 -0.000440872 0.000140601 -0.000523787 0.107477 -0.216567 -0.712161 0.000502595 919.024 0.00418867 -0.00418802 4 
868 1 1 -0.00769736 0.00552557 0.000499075 0 0 0 0.000197758 -9.49388e-05 0.000114483 -0.000593517 -2.91262e-05 -0.000209628 0.0841617 0.307267 0.755628 0.000503652 1059.97 0.00418867 -0.00419515 6 
2746 1 1 -0.0067505 0.00633604 0.000869817 0 0 0 0.00130821 -0.000561031 -0.000730827 0.000127841 -0.000586947 0.000382611 -3.8645 -27.9571 49.4118 0.000506162 1394.54 0.00418867 -0.00411229 2 
1136 1 1 -0.00581678 0.0061518 0.000501237 0 0 0 -0.000386862 -0.000284339 9.8925e-05 -0.000186474 -4.51998e-06 -0.000231432 0.689256 -0.880259 0.414495 0.000505516 1308.52 0.00418867 -0.00419559 5 
1117 1 1 -0.00492286 0.00571034 0.000663372 0 0 0 -0.000155618 1.75192e-05 0.000326136 -0.000430549 -4.23525e-06 -0.000438418 -0.0333054 0.141905 0.423331 0.000506118 1388.75 0.00418867 -0.00419357 4 
1791 1 1 -0.00405436 0.00628899 0.000503613 0 0 0 -6.72449e-05 -0.000178444 5.748e-05 -0.000378629 3.97061e-05 -0.000227761 0.101996 -0.120199 0.43801 0.000506572 1449.32 0.00418867 -0.00419058 4 
57 1 1 -0.00316246 0.00580958 0.000505215 0 0 0 9.5175e-05 -6.54557e-05 -4.91847e-05 -0.000429634 -0.000183453 1.45393e-05 -0.073428 0.142032 0.333443 0.000506898 1492.74 0.00418867 -0.00419018 5 
1367 1 1 -0.00132408 0.00586731 0.00050935 0 0 0 0.00011788 -0.00291013 0.000195219 9.37931e-05 6.65286e-05 -8.31018e-06 152.243 5.31437 -156.268 0.000509321 1815.8 0.00418867 -0.00409671 1 
926 1 1 -0.000400406 0.00629251 0.000505 0 0 0 0.000245561 -0.000247862 -0.000266862 6.44387e-05 -0.000433032 -4.89258e-05 0.0927104 0.360044 -0.802194 0.00050754 1578.33 0.00418867 -0.0041891 6 
1303 1 1 -0.00950075 0.00732931 0.000499138 0 0 0 -1.24923e-05 -0.000256757 2.50339e-05 -9.88292e-05 0.000134469 1.18945e-05 0.355976 -0.108616 -0.797445 0.000501264 741.497 0.00418867 -0.00418427 3 
606 1 1 -0.0087446 0.00675305 0.000811269 0 0 0 -0.000141552 -0.000284091 0.000370041 -0.000230325 3.62655e-05 -0.000205064 0.473104 -1.20867 1.00833 0.000502525 909.667 0.00418867 -0.00418295 5 
682 1 1 -0.0078166 0.00652484 0.000501242 0 0 0 0.000548459 -0.000142545 0.000300004 -0.000460379 -4.37572e-05 0.000117162 0.423893 1.0205 -1.13329 0.000503435 1031.01 0.00418867 -0.00416095 5 
1384 1 1 -0.00708431 0.00721913 0.000505758 0 0 0 0.0012135 0.000479707 0.000205674 -0.000105064 0.000523329 -0.000251794 12.5978 -7.04874 -28.0947 0.000505685 1331.01 0.00418867 -0.00414552 2 
480 1 1 -0.00505704 0.00682336 0.000523196 0 0 0 0.000199246 -0.00014024 0.00942012 -0.000173258 -0.000149031 4.04743e-05 -21.2352 -44.1585 -1.89123 0.000508725 1736.3 0.00418867 -0.0041273 1 
792 1 1 -0.00414189 0.00729625 0.000505927 0 0 0 4.66792e-05 -0.000205456 -2.27507e-07 -0.00024487 -5.21919e-05 2.31877e-05 0.0380074 -0.205474 -0.816093 0.000506547 1445.97 0.00418867 -0.00418912 3 
220 1 1 -0.00315399 0.00682182 0.000505616 0 0 0 -6.35341e-07 -0.000231934 -7.1535e-05 -0.000414566 -0.000361381 0.000314061 0.302121 -0.0105382 -0.02432 0.000506975 1503.05 0.00418867 -0.00419428 3 
2336 1 1 -0.00217086 0.00656555 0.000535785 0 0 0 0.00812315 0.0313904 0.0186199 1.68468e-05 -8.18861e-06 4.88588e-07 -43.1644 -16.1821 -597.059 0.000509458 1834.13 0.00418867 -0.0041515 1 
500 1 1 -0.00119594 0.00692012 0.000506007 0 0 0 0.000208261 -0.000425662 -0.000261635 -0.000512167 -0.000824567 0.000159135 0.366036 -0.064998 1.24414 0.000507484 1570.83 0.00418867 -0.00419058 2 
1115 1 1 -0.000250986 0.00729443 0.000501785 0 -1 0 0.000411728 -0.000442466 -9.03463e-05 -3.49663e-05 -0.000349805 9.27002e-06 0.687912 0.726169 0.168207 0.00050752 1575.63 0.00418867 -0.00418918 4 
1666 1 1 -0.0095007 -0.00718693 0.00137501 0 0 0 5.754e-05 -0.000220844 6.08624e-05 -0.000289177 9.5055e-07 0.000103247 -0.417247 -0.00528683 0.138695 0.000501366 755.134 0.00418867 -0.00418806 5 
2535 1 1 -0.00859927 -0.00680055 0.00116712 0 0 0 0.000628323 -0.000368368 0.00012424 -0.00038443 -0.000152376 0.00021094 -0.538456 -0.992654 -0.947698 0.000502531 910.514 0.00418867 -0.00418246 4 
1519 1 1 -0.00803326 -0.00685408 0.00199468 0 0 0 0.000196033 -0.000141701 0.000394634 -0.000785439 -0.000489521 0.000609562 -0.304892 -0.169492 0.555466 0.0005033 1013.01 0.00418867 -0.00418384 9 
312 1 1 -0.00751988 -0.00718469 0.00119442 0 1 0 8.18216e-05 0.000140124 0.000438786 -0.000125439 -0.000732453 0.00106587 0.291849 0.346766 -0.365168 0.000503817 1081.97 0.00418867 -0.00419062 4 
1598 1 1 -0.00572299 -0.00723201 0.00164945 0 0 0 -4.90689e-05 -0.00014491 0.000133999 -0.00134083 -0.000729285 0.000527509 0.000307746 0.167929 0.181202 0.000505421 1295.82 0.00418867 -0.00418747 6 
643 1 1 -0.00448477 -0.00655582 0.00119408 0 0 0 -3.54085e-05 -0.000316993 -0.000104981 -0.000847826 -0.00106754 0.000359775 -1.0254 0.303996 1.31476 0.000506263 1408.1 0.00418867 -0.00418784 5 
2343 1 1 -0.00338378 -0.007391 0.00109811 0 0 0 6.13855e-05 -0.000438399 -0.000148709 -0.0006838 -0.000327302 0.000435875 -0.337102 0.412443 0.129565 0.000506817 1481.99 0.00418867 -0.00418889 7 
1099 1 1 -0.00254941 -0.00696644 0.00148002 0 0 0 0.000124298 -0.00113497 -0.00025918 -0.000623523 -0.000239214 0.000852299 0.94587 -0.309898 -0.760518 0.00050708 1517.06 0.00418867 -0.00418519 8 
603 1 1 -0.00177376 -0.00746816 0.00106916 0 0 0 0.000106825 -0.00114379 -0.00045658 -0.000414622 -0.000579789 0.000664894 0.501323 -0.119263 -0.362019 0.000507326 1549.85 0.00418867 -0.00418701 6 
2152 1 1 -0.000946928 -0.00725238 0.00161163 0 0 0 1.38788e-05 -0.00133528 -0.000594929 -0.000106638 -0.000262967 0.00131498 -0.57144 -0.0562373 0.502869 0.000507425 1563.01 0.00418867 -0.00418655 5 
2469 1 1 -0.00950248 -0.00618652 0.00136553 0 0 0 2.23854e-05 -0.00044787 0.000280415 -3.35112e-05 -0.000116641 0.000186016 0.996056 -0.457746 -0.771943 0.00050122 735.713 0.00418867 -0.00418798 3 
300 1 1 -0.00862588 -0.00571457 0.00144313 0 0 0 8.69142e-05 -0.000817958 0.00033995 -8.23556e-05 -0.000365749 0.000551377 0.959623 1.47266 0.350765 0.0005025 906.289 0.00418867 -0.00418892 3 