ITEM: TIMESTEP
6888000
ITEM: NUMBER OF ENTRIES
24702
ITEM: BOX BOUNDS mm pp mm
-0.01 0.01
-0.0075 0.0075
0 0.03
ITEM: ENTRIES c_fc[1] c_fc[2] c_fc[3] c_fc[4] c_fc[5] c_fc[6] c_fc[7] c_fc[8] c_fc[9] c_fc[10] c_fc[11] c_fc[12] c_fc[13] c_fc[14] 
-0.00939445 -0.00667567 0.000499737 -0.00950075 0.00732931 0.000499138 1360 1303 1 0.104623 2.23274 0.2795 2.89087e-09 0.000569629 
-0.00939445 -0.00667567 0.000499737 -0.00950005 -0.00567994 0.000499752 1360 1295 0 0.131342 -0.933238 -0.146536 1.62583e-09 -0.00374759 
-0.00939445 -0.00667567 0.000499737 -0.00950248 -0.00618652 0.00136553 1360 2469 0 0.00960611 -1.57407 -2.48376 3.45848e-09 -0.00100983 
-0.00820387 -0.00745476 0.000504541 -0.0087446 0.00675305 0.000811269 1101 606 1 -0.000124522 -0.000153539 0.000105897 1.09263e-11 -0.00411151 
-0.00665819 -0.00663635 0.000509488 -0.00611383 -0.00748586 0.000504159 1795 2282 0 -0.390872 0.660313 -5.43004e-05 1.42752e-09 0.0111754 
-0.00665819 -0.00663635 0.000509488 -0.00765147 -0.00646426 0.0005033 1795 2577 0 0.257977 -0.0780752 0.000163001 7.08014e-10 -0.0146762 
-0.00665819 -0.00663635 0.000509488 -0.00678554 -0.00563582 0.000503838 1795 1283 0 0.134152 -0.581489 0.0002604 1.20248e-09 -0.000681289 
-0.00611383 -0.00748586 0.000504159 -0.00580229 0.00686462 0.00121079 2282 210 1 -0.464051 0.876388 -1.28352 2.33517e-09 0.00699106 
-0.00499619 -0.00716368 0.000504534 -0.00414189 0.00729625 0.000505927 1904 792 1 -1.96487 1.63599 -0.18683 3.16837e-09 0.0144154 
-0.00499619 -0.00716368 0.000504534 -0.00548458 -0.00646356 0.001043 1904 2658 0 1.94364 -2.09876 -2.42152 4.06487e-09 -0.0186023 
-0.00375465 -0.00666243 0.000503622 -0.0038895 -0.0057535 0.000925294 2537 227 0 0.212923 -2.319 -1.52409 3.34477e-09 -0.00366764 
-0.00375465 -0.00666243 0.000503622 -0.00283508 -0.00624032 0.000590749 2537 219 0 -4.25112e-05 9.74413e-05 3.70221e-05 7.55666e-12 0.00414376 
-0.00375465 -0.00666243 0.000503622 -0.00448477 -0.00655582 0.00119408 2537 643 0 1.92991 -0.333392 -2.6101 3.71054e-09 -0.013362 
-0.00375465 -0.00666243 0.000503622 -0.00338378 -0.007391 0.00109811 2537 2343 0 -1.48186 2.48884 -2.43058 4.12678e-09 0.00869102 
-0.00257941 -0.00723381 0.000504156 -0.00338378 -0.007391 0.00109811 1266 2343 0 1.75655 0.359262 -1.16186 2.8272e-09 -0.0107427 
-0.00257941 -0.00723381 0.000504156 -0.00254941 -0.00696644 0.00148002 1266 1099 0 0.250665 -0.970267 -2.27019 3.08932e-09 -0.00187332 
-0.00257941 -0.00723381 0.000504156 -0.00177376 -0.00746816 0.00106916 1266 603 0 -3.14774 1.05069 -3.11533 4.64202e-09 0.00842907 
-0.0013711 -0.00672957 0.000505963 -0.000807569 -0.00588825 0.000504186 599 1180 0 -1.6622 -2.63786 -0.36618 3.64052e-09 0.000458244 
-0.0013711 -0.00672957 0.000505963 -0.00177376 -0.00746816 0.00106916 599 603 0 1.42832 2.40149 -1.93097 3.85414e-09 -0.00464332 
-0.000197768 -0.0066949 0.000506684 -0.000250986 0.00729443 0.000501785 1338 1115 1 -0.103516 4.56517 -0.28708 4.68569e-09 0.000711135 
-0.000197768 -0.0066949 0.000506684 -0.000807569 -0.00588825 0.000504186 1338 1180 0 3.25647 -5.74159 -0.469442 5.9649e-09 -0.0023918 
-0.00950005 -0.00567994 0.000499752 -0.00856918 -0.0060521 0.000500233 1295 620 0 -0.819163 0.301502 -0.0288001 1.54744e-09 0.0323123 
-0.00950005 -0.00567994 0.000499752 -0.00950075 -0.0051435 0.0013439 1295 2266 0 -0.424132 -1.49248 -2.25688 3.28542e-09 0.00223197 
-0.00856918 -0.0060521 0.000500233 -0.00765147 -0.00646426 0.0005033 620 2577 0 -0.0756438 0.0268427 -0.00657062 3.17428e-10 0.0166003 
-0.00856918 -0.0060521 0.000500233 -0.00862608 -0.00505253 0.000585738 620 1145 0 0.00553115 -0.0603425 -0.00680127 2.59493e-10 0.00237433 
-0.00856918 -0.0060521 0.000500233 -0.00859927 -0.00680055 0.00116712 620 2535 0 -0.0668216 1.64011 -2.0088 3.17133e-09 0.00526016 
-0.00856918 -0.0060521 0.000500233 -0.00862588 -0.00571457 0.00144313 620 300 0 -0.255714 -0.805117 -2.01111 2.8219e-09 0.00388462 
-0.00765147 -0.00646426 0.0005033 -0.00774579 -0.00549706 0.00076717 2577 1012 0 0.115019 -0.411847 -0.136476 9.86978e-10 -0.00174598 
-0.00765147 -0.00646426 0.0005033 -0.00751988 -0.00718469 0.00119442 2577 312 0 -0.00189285 0.360562 -0.376132 1.09527e-09 -0.000507165 
-0.00678554 -0.00563582 0.000503838 -0.00577885 -0.00566542 0.000502214 1283 2369 0 -4.75209 0.170947 0.101227 4.80868e-09 0.0363214 
-0.00678554 -0.00563582 0.000503838 -0.00774579 -0.00549706 0.00076717 1283 1012 0 4.75619 -0.717504 -1.06944 4.91509e-09 -0.0411875 
-0.00577885 -0.00566542 0.000502214 -0.00479515 -0.00589165 0.00050141 2369 574 0 -2.85747 0.493795 -0.504338 3.45885e-09 0.021744 
-0.00577885 -0.00566542 0.000502214 -0.00509473 -0.00492339 0.000504229 2369 2561 0 -1.94758 -1.99687 0.311039 3.37243e-09 0.0157431 
-0.00577885 -0.00566542 0.000502214 -0.00548458 -0.00646356 0.001043 2369 2658 0 -1.48306 3.83871 -3.02298 5.03784e-09 0.00910453 
-0.00577885 -0.00566542 0.000502214 -0.00613484 -0.00540226 0.00140741 2369 2116 0 1.45245 -1.36513 -4.22933 4.75227e-09 -0.0144556 
-0.00479515 -0.00589165 0.00050141 -0.0038895 -0.0057535 0.000925294 574 227 0 -4.29624 -0.354067 -2.61562 4.98072e-09 0.0198044 
-0.00479515 -0.00589165 0.00050141 -0.00448477 -0.00655582 0.00119408 574 643 0 -1.96605 3.70369 -5.05136 5.93692e-09 0.00960655 
-0.00479515 -0.00589165 0.00050141 -0.00514181 -0.00558249 0.00139624 574 363 0 2.17166 -2.06471 -5.63625 5.85584e-09 -0.0118532 
-0.0038895 -0.0057535 0.000925294 -0.00312171 -0.00525144 0.000502051 227 323 0 -3.08211 -2.82291 2.43353 4.82478e-09 0.014177 
-0.0038895 -0.0057535 0.000925294 -0.00342189 -0.00645556 0.0014801 227 735 0 -2.70683 3.87774 -4.04284 5.73183e-09 0.0105855 
-0.0038895 -0.0057535 0.000925294 -0.00432403 -0.00498766 0.00141937 227 2454 0 1.70466 -3.7283 -2.52953 4.84729e-09 -0.0128123 
-0.000807569 -0.00588825 0.000504186 -0.00126792 -0.00498975 0.0005041 1180 1959 0 4.89864 -9.71364 0.340368 8.36539e-09 -0.00463757 
-0.000807569 -0.00588825 0.000504186 -0.00104567 -0.00626687 0.00141157 1180 1507 0 0.784915 2.05906 -4.78982 5.15295e-09 -0.00214423 
-0.000807569 -0.00588825 0.000504186 -9.7649e-05 -0.00596818 0.00122043 1180 6867 0 -3.79987 -0.506564 -3.92358 5.25267e-09 0.0006655 
-0.00950173 -0.00457648 0.000499807 -0.00862608 -0.00505253 0.000585738 2725 1145 0 -5.52691 2.92815 -0.837305 5.77697e-09 0.057157 
-0.00950173 -0.00457648 0.000499807 -0.00864874 -0.00405031 0.000501075 2725 413 0 -1.7092 -1.2492 0.18067 2.78785e-09 0.0378092 
-0.00950173 -0.00457648 0.000499807 -0.00950007 -0.00410991 0.00138501 2725 716 0 -0.186804 -1.25582 -2.31189 3.22612e-09 -0.00711347 
-0.00862608 -0.00505253 0.000585738 -0.00774579 -0.00549706 0.00076717 1145 1012 0 -5.52161 2.86718 -0.843094 5.76638e-09 0.0553401 
-0.00774579 -0.00549706 0.00076717 -0.00751051 -0.00616535 0.00148082 1012 1743 0 -0.650637 1.73735 -2.04771 3.34182e-09 0.00822034 
-0.0075509 -0.00454076 0.000501028 -0.00777247 -0.00355876 0.000512356 218 1175 0 0.293902 -0.739872 0.0280996 1.44719e-09 -0.00442271 
-0.0075509 -0.00454076 0.000501028 -0.00702956 -0.00497117 0.00124509 218 2593 0 -2.33021 2.18455 -3.47141 4.77445e-09 0.0220907 
-0.0075509 -0.00454076 0.000501028 -0.00797168 -0.00419797 0.00134665 218 2149 0 1.69802 -1.35654 -2.8107 3.94273e-09 -0.0218543 
-0.00650098 -0.004543 0.000502019 -0.00573391 -0.00388791 0.000504486 1378 1741 0 -1.33964 -1.26452 -0.226164 2.55599e-09 0.0183867 
-0.00650098 -0.004543 0.000502019 -0.00702956 -0.00497117 0.00124509 1378 2593 0 1.29801 1.37137 -1.49042 3.01734e-09 -0.0165174 
-0.00650098 -0.004543 0.000502019 -0.00701155 -0.00396709 0.00115214 1378 1387 0 1.07053 -1.1946 -1.24949 2.72792e-09 -0.019436 
-0.00650098 -0.004543 0.000502019 -0.00602164 -0.00440146 0.00137695 1378 1661 0 -1.58761 0.0904222 -3.22497 3.95256e-09 0.0133808 
-0.00509473 -0.00492339 0.000504229 -0.00416983 -0.00451715 0.000504127 2561 1823 0 -2.35943 -0.971295 -0.379321 3.18032e-09 0.0128922 
-0.00509473 -0.00492339 0.000504229 -0.00502629 -0.00427667 0.00127681 2561 730 0 0.0775945 -1.29571 -2.0951 3.07622e-09 -0.00133448 
-0.00416983 -0.00451715 0.000504127 -0.00474477 -0.00368592 0.00050425 1823 2011 0 1.05078 -1.46707 -0.132032 2.52557e-09 -0.00834555 
-0.00416983 -0.00451715 0.000504127 -0.00343049 -0.00457824 0.00118865 1823 639 0 -4.04692 0.293231 -4.2448 5.5357e-09 0.0170522 
-0.00312171 -0.00525144 0.000502051 -0.00214153 -0.00549909 0.000504446 323 615 0 -4.44574 1.82911 -0.52467 4.82444e-09 0.0161036 
-0.00312171 -0.00525144 0.000502051 -0.00343049 -0.00457824 0.00118865 323 639 0 1.99579 -4.24477 -3.72361 5.6081e-09 -0.00940208 
-0.00312171 -0.00525144 0.000502051 -0.0029011 -0.00538946 0.00147785 323 1581 0 -1.13718 0.534811 -6.61346 6.06236e-09 0.00329145 
-0.00214153 -0.00549909 0.000504446 -0.00126792 -0.00498975 0.0005041 615 1959 0 -4.3523 -3.34325 -0.261763 5.27725e-09 0.00873175 
-0.00214153 -0.00549909 0.000504446 -0.00203975 -0.00611406 0.00129941 615 2311 0 -0.799316 4.95034 -6.04857 6.73414e-09 0.00319114 
-0.00126792 -0.00498975 0.0005041 -0.00190685 -0.00426835 0.000807125 1959 1726 0 5.05968 -5.8424 -3.8652 7.11647e-09 -0.00521358 
-0.00126792 -0.00498975 0.0005041 -0.000827257 -0.00408035 0.000514099 1959 309 0 -4.01948 -6.84113 -0.763987 6.77133e-09 0.00488769 
-0.00126792 -0.00498975 0.0005041 -0.00111283 -0.00451597 0.00138522 1959 619 0 -0.363761 -1.69108 -2.84914 3.80201e-09 0.000240392 
-0.00949745 -0.00350605 0.000502554 -0.00949703 -0.00284473 0.00126 2212 1699 0 0.0283081 0.242103 -0.211399 9.54442e-12 0.000817253 
-0.00864874 -0.00405031 0.000501075 -0.00777247 -0.00355876 0.000512356 413 1175 0 -1.5328 -0.698848 -0.0451142 2.39811e-09 0.0370082 
-0.00864874 -0.00405031 0.000501075 -0.00870081 -0.00350759 0.00134319 413 2682 0 0.0351707 -0.862795 -2.06833 2.87261e-09 -0.00338338 
-0.00777247 -0.00355876 0.000512356 -0.00771698 -0.00255381 0.000501027 1175 1246 0 0.0513567 -0.943958 -0.02367 1.63051e-09 0.00254176 
-0.00777247 -0.00355876 0.000512356 -0.00685667 -0.00314041 0.00053271 1175 2278 0 -1.29093 -0.494156 0.0070372 2.10592e-09 0.0258601 
-0.00573391 -0.00388791 0.000504486 -0.00474477 -0.00368592 0.00050425 1741 2011 0 -2.388 -0.268257 0.224564 3.04673e-09 0.0195136 
-0.00573391 -0.00388791 0.000504486 -0.00602493 -0.0033914 0.00133324 1741 640 0 0.868399 -1.0533 -1.67262 2.82934e-09 -0.00531289 
-0.00474477 -0.00368592 0.00050425 -0.00489669 -0.00268709 0.000501281 2011 2724 0 0.287663 -1.70485 -0.0215318 2.45406e-09 -0.0050575 
-0.00474477 -0.00368592 0.00050425 -0.00411428 -0.00383972 0.00127808 2011 2037 0 -1.76324 0.178739 -2.86379 3.79204e-09 0.0120393 
-0.00284701 -0.00388589 0.000535758 -0.00261135 -0.004082 0.00150634 2717 1539 0 0.00794672 -0.00188437 -0.00211025 2.9634e-12 -0.00413822 
-0.00190685 -0.00426835 0.000807125 -0.00193884 -0.00330382 0.000505006 1726 536 0 0.236416 -4.89334 2.50121 5.26365e-09 -0.000437181 
-0.00190685 -0.00426835 0.000807125 -0.00111283 -0.00451597 0.00138522 1726 619 0 -1.59412 0.608415 -1.23125 2.80052e-09 0.00347688 
-0.00190685 -0.00426835 0.000807125 -0.00261135 -0.004082 0.00150634 1726 1539 0 6.4178 -1.55558 -5.13357 6.99619e-09 -0.0124353 
-0.000827257 -0.00408035 0.000514099 -2.3056e-05 -0.00352597 0.000776783 309 5886 0 -4.62277 -3.50051 -1.11948 5.55958e-09 0.00135871 
-0.000827257 -0.00408035 0.000514099 -0.000893529 -0.00307006 0.000504109 309 1281 0 0.603535 -3.33987 0.357476 3.84053e-09 -0.000648048 
-2.3056e-05 -0.00352597 0.000776783 0.000503892 -0.00434849 0.000505846 5886 5747 0 -0.689849 1.11258 0.313474 2.08128e-09 0.00084648 
-2.3056e-05 -0.00352597 0.000776783 -0.000392104 -0.00276194 0.00133049 5886 2579 0 0.75625 -1.46887 -1.504 2.89238e-09 -6.9868e-05 
-0.00872377 -0.00281834 0.000609916 -0.00870081 -0.00350759 0.00134319 616 2682 0 8.09449e-06 -5.97507e-05 4.43036e-05 1.41451e-11 -0.00410042 
-0.00771698 -0.00255381 0.000501027 -0.00838265 -0.0019174 0.000909506 1246 1846 0 0.00176853 -0.00301647 -0.00106145 3.99567e-11 -0.000777468 
-0.00771698 -0.00255381 0.000501027 -0.00681917 -0.00209614 0.000501967 1246 1853 0 -0.272359 -0.12619 -0.0291554 7.6165e-10 0.00951077 
-0.00771698 -0.00255381 0.000501027 -0.00787 -0.00271952 0.0014793 1246 1043 0 0.61128 0.063928 -5.9822 5.56175e-09 -0.0103752 
-0.00685667 -0.00314041 0.00053271 -0.00589429 -0.00284002 0.000501814 2278 1466 0 -1.29126 -0.494642 0.00710861 2.10851e-09 0.0216745 
-0.00589429 -0.00284002 0.000501814 -0.00489669 -0.00268709 0.000501281 1466 2724 0 -2.46093 -0.269337 -0.420997 3.11322e-09 0.0176448 
-0.00589429 -0.00284002 0.000501814 -0.00583852 -0.00183346 0.000507566 1466 112 0 -0.163954 -3.90164 -0.482964 4.22124e-09 0.00280342 
-0.00589429 -0.00284002 0.000501814 -0.00602493 -0.0033914 0.00133324 1466 640 0 1.00758 3.99287 -7.58001 7.12553e-09 -0.00296104 
-0.00489669 -0.00268709 0.000501281 -0.0042845 -0.0026096 0.00129749 2724 62 0 -5.69997 -0.298486 -7.44227 7.56021e-09 0.0226448 
-0.00489669 -0.00268709 0.000501281 -0.00529853 -0.00221817 0.00129748 2724 1516 0 2.94066 -2.5888 -5.44134 6.03251e-09 -0.014245 
-0.00382841 -0.00325318 0.000505412 -0.00365882 -0.0022552 0.000505137 1241 2470 0 -0.223483 -0.933091 -0.124379 1.65745e-09 0.0042416 
-0.00382841 -0.00325318 0.000505412 -0.00411428 -0.00383972 0.00127808 1241 2037 0 0.352317 0.947648 -1.48457 2.50712e-09 -0.0084263 
-0.00285377 -0.00286842 0.000505206 -0.00193884 -0.00330382 0.000505006 1863 536 0 -0.851305 0.535674 -0.0793762 1.70674e-09 0.00583158 
-0.00285377 -0.00286842 0.000505206 -0.00365882 -0.0022552 0.000505137 1863 2470 0 1.73416 -1.28082 0.36243 2.84662e-09 -0.0104509 
-0.00285377 -0.00286842 0.000505206 -0.00201891 -0.00229518 0.000505404 1863 1770 0 -1.58259 -0.814659 -0.193507 2.49349e-09 0.00568402 
-0.00285377 -0.00286842 0.000505206 -0.00323501 -0.00330416 0.00133449 1863 2636 0 0.777982 1.71212 -3.27876 4.09315e-09 -0.00524499 
-0.00193884 -0.00330382 0.000505006 -0.00201891 -0.00229518 0.000505404 536 1770 0 0.231042 -3.94696 -0.598568 4.26492e-09 -0.00178474 
-0.00193884 -0.00330382 0.000505006 -0.00133658 -0.00353475 0.00128632 536 1310 0 -0.938785 0.143251 -1.31893 2.34356e-09 0.00300132 
-0.000893529 -0.00307006 0.000504109 -0.00110184 -0.00216948 0.000914252 1281 2727 0 0.565691 -5.24596 -3.39713 5.7346e-09 -0.00184534 
-0.000893529 -0.00307006 0.000504109 -0.00133658 -0.00353475 0.00128632 1281 1310 0 1.2739 1.7754 -3.82757 4.53402e-09 -0.003688 
-0.000893529 -0.00307006 0.000504109 -0.000392104 -0.00276194 0.00133049 1281 2579 0 -0.10773 -0.0665285 -0.209916 6.69714e-10 0.000708571 
-0.00838265 -0.0019174 0.000909506 -0.00884268 -0.00111999 0.000502802 1846 2478 0 0.00232823 -0.00245316 0.000734262 4.25935e-11 -0.00350121 
-0.00838265 -0.0019174 0.000909506 -0.00822787 -0.00188234 0.00190379 1846 1620 0 5.1233e-05 0.000115461 -0.00222657 3.11398e-11 -0.00144807 
-0.00681917 -0.00209614 0.000501967 -0.00721042 -0.00196264 0.00141889 1853 1551 0 1.00062 -0.444187 -4.02775 4.36602e-09 -0.00790215 
-0.00681917 -0.00209614 0.000501967 -0.00629284 -0.00238388 0.00131231 1853 814 0 -0.576794 0.217721 -0.757497 1.66825e-09 0.0132274 
-0.00583852 -0.00183346 0.000507566 -0.00559166 -0.000855484 0.000503908 112 143 0 -1.02402 -3.36453 0.565008 3.93481e-09 0.0112939 
-0.00583852 -0.00183346 0.000507566 -0.00634448 -0.00137909 0.00125305 112 1807 0 0.8583 -0.536385 -1.04755 2.17605e-09 -0.0126788 
-0.00433553 -0.00165844 0.000960644 -0.00365882 -0.0022552 0.000505137 2210 2470 0 -1.9987 1.88606 2.09258 3.85072e-09 0.0137985 
-0.00433553 -0.00165844 0.000960644 -0.0045834 -0.00079521 0.000503049 2210 74 0 2.65596 -7.18555 4.95293 7.39335e-09 -0.00920727 
-0.00433553 -0.00165844 0.000960644 -0.0042845 -0.0026096 0.00129749 2210 62 0 -0.298724 3.15377 -0.579954 3.68259e-09 -0.00529621 
-0.00433553 -0.00165844 0.000960644 -0.00456832 -0.00186152 0.00192137 2210 2449 0 2.02299 0.822113 -5.02315 5.25031e-09 -0.0144499 
-0.00433553 -0.00165844 0.000960644 -0.00355078 -0.00195582 0.00152412 2210 1358 0 -2.38074 1.3247 -1.44148 3.57844e-09 0.0109672 
-0.00365882 -0.0022552 0.000505137 -0.00305067 -0.00149183 0.000775378 2470 1293 0 -0.359539 -0.643108 -0.2624 1.43342e-09 0.00340738 
-0.00201891 -0.00229518 0.000505404 -0.00110184 -0.00216948 0.000914252 1770 2727 0 -3.40283 -1.05057 -2.05152 4.32928e-09 0.00787782 
-0.00201891 -0.00229518 0.000505404 -0.00209673 -0.00128604 0.000503894 1770 115 0 0.264731 -3.02806 0.207379 3.57999e-09 -0.00271704 
-0.00201891 -0.00229518 0.000505404 -0.0025897 -0.00219968 0.001336 1770 1398 0 1.29003 -0.66588 -2.08289 3.14186e-09 -0.00544072 
-0.00110184 -0.00216948 0.000914252 -0.000176771 -0.00219142 0.000504819 2727 6561 0 -4.19097 -0.573246 2.32866 4.82816e-09 0.00294281 
-0.00110184 -0.00216948 0.000914252 -0.00106237 -0.00124348 0.000506516 2727 2195 0 -0.352865 -2.84961 1.35882 3.68054e-09 0.00186106 
-0.00110184 -0.00216948 0.000914252 -0.00129656 -0.00265314 0.00178127 2727 2528 0 0.838072 1.72258 -4.56176 4.91808e-09 -0.00114239 
-0.00110184 -0.00216948 0.000914252 -0.000392104 -0.00276194 0.00133049 2727 2579 0 -0.594087 0.588236 -0.396623 1.61878e-09 0.00208206 
-0.00110184 -0.00216948 0.000914252 -0.00177781 -0.00160255 0.00140879 2727 561 0 3.3261 -3.56334 -2.46272 5.26556e-09 -0.0057683 
-0.00110184 -0.00216948 0.000914252 -0.000341134 -0.00166759 0.00135577 2727 2076 0 -1.86348 -1.62151 -1.71349 3.51072e-09 0.00187663 
-0.000176771 -0.00219142 0.000504819 -5.12934e-05 -0.00118636 0.000505913 6561 5605 0 -0.443958 -2.78816 -0.385888 3.40865e-09 0.00131033 
-0.000176771 -0.00219142 0.000504819 -0.000341134 -0.00166759 0.00135577 6561 2076 0 0.291966 -1.59933 -2.60184 3.59765e-09 -0.000640557 
-0.00884268 -0.00111999 0.000502802 -0.0094997 -0.000361225 0.000499581 2478 2166 0 0.00156007 -0.00274418 0.000858031 3.99727e-11 -0.0076436 
-0.00796893 -0.000611146 0.000501562 -0.00862881 0.000146206 0.000508228 2421 754 0 1.09494 -1.52577 0.0013959 2.57515e-09 -0.0222206 
-0.00796893 -0.000611146 0.000501562 -0.00710507 -9.34315e-05 0.000502811 2421 783 0 -0.264335 -0.217186 -0.0159356 8.25215e-10 0.0148673 
-0.00796893 -0.000611146 0.000501562 -0.00784478 -0.00113827 0.00134736 2421 173 0 -0.677719 1.85923 -3.19703 4.09774e-09 0.00315915 
-0.00704114 -0.00110288 0.000533124 -0.00710507 -9.34315e-05 0.000502811 2518 783 0 2.35955e-05 0.000184316 -1.53862e-05 3.4721e-12 -0.00414249 
-0.00559166 -0.000855484 0.000503908 -0.0045834 -0.00079521 0.000503049 143 74 0 -2.31133 -0.0316552 -0.349159 2.97491e-09 0.0181995 
-0.00559166 -0.000855484 0.000503908 -0.00610311 1.38877e-05 0.000499794 143 233 0 1.84505 -2.55754 -0.489951 3.64857e-09 -0.0174441 
-0.00559166 -0.000855484 0.000503908 -0.00513539 3.44423e-06 0.000777183 143 129 0 -0.604771 -1.18139 -0.60977 2.17433e-09 0.00629851 
-0.00559166 -0.000855484 0.000503908 -0.00531694 -0.00121591 0.00140682 143 1559 0 -0.165497 0.352453 -1.05894 1.83333e-09 5.21674e-05 
-0.0045834 -0.00079521 0.000503049 -0.0036784 -0.000716063 0.000947085 74 2611 0 -1.73313 -0.016822 -1.07998 2.73019e-09 0.0142446 
-0.0045834 -0.00079521 0.000503049 -0.00513539 3.44423e-06 0.000777183 74 129 0 2.66008 -4.46809 -1.83395 5.29847e-09 -0.0144561 
-0.0045834 -0.00079521 0.000503049 -0.00417051 0.000127554 0.000505062 74 2061 0 -0.747171 -1.81376 0.296965 2.67018e-09 0.00501402 
-0.00305067 -0.00149183 0.000775378 -0.0036784 -0.000716063 0.000947085 1293 2611 0 0.437678 -0.696426 -0.15468 1.50842e-09 -0.00570239 
-0.00305067 -0.00149183 0.000775378 -0.00209673 -0.00128604 0.000503894 1293 115 0 -0.97921 -0.182495 0.286061 1.74726e-09 0.00728579 
-0.00305067 -0.00149183 0.000775378 -0.00355078 -0.00195582 0.00152412 1293 1358 0 0.197561 0.205618 -0.367571 1.02189e-09 -0.00412455 
-0.00305067 -0.00149183 0.000775378 -0.0025897 -0.00219968 0.001336 1293 1398 0 -0.0155587 0.0301677 -0.0245344 2.06803e-10 0.00176372 
-0.0036784 -0.000716063 0.000947085 -0.00278523 -0.000545209 0.000502985 2611 1496 0 -1.6268 -0.613083 0.823177 2.61711e-09 0.0113914 
-0.0036784 -0.000716063 0.000947085 -0.00391831 -0.00107672 0.00186124 2611 2665 0 0.295934 0.485874 -1.71644 2.51799e-09 -0.00448853 
-0.0036784 -0.000716063 0.000947085 -0.00383077 0.000121454 0.00149504 2611 360 0 0.03557 -0.585218 -0.340507 1.30971e-09 -0.00254892 
-0.00209673 -0.00128604 0.000503894 -0.00278523 -0.000545209 0.000502985 115 1496 0 2.51786 -3.40295 -0.0247883 4.44347e-09 -0.00656276 
-0.00209673 -0.00128604 0.000503894 -0.00177781 -0.00160255 0.00140879 115 561 0 -2.86367 1.35647 -6.9894 6.58254e-09 0.00694875 
-0.00278523 -0.000545209 0.000502985 -0.00230272 0.000346354 0.000503306 1496 2327 0 -0.111011 -0.220684 0.00119483 6.73627e-10 0.00291556 
-0.00278523 -0.000545209 0.000502985 -0.00283819 1.11723e-05 0.00134277 1496 1925 0 0.83632 -5.00063 -9.46267 8.25873e-09 -0.00227437 
-0.00106237 -0.00124348 0.000506516 -5.12934e-05 -0.00118636 0.000505913 2195 5605 0 -3.14436 0.346797 0.178494 3.64443e-09 0.00205972 
-0.00106237 -0.00124348 0.000506516 -0.00161266 -0.000394113 0.000504508 2195 109 0 2.8776 -3.09011 0.010121 4.41227e-09 -0.00437932 
-0.0094997 -0.000361225 0.000499581 -0.00950032 0.000640366 0.000500367 2166 2321 0 -0.0437798 -0.352195 0.00955773 8.44541e-10 0.00538094 
-0.0094997 -0.000361225 0.000499581 -0.00950008 -0.000866556 0.00136302 2166 939 0 -0.237689 0.73346 -1.55881 2.42516e-09 0.00473966 
-0.0094997 -0.000361225 0.000499581 -0.00950374 0.000135504 0.00136916 2166 1432 0 -0.0385372 -0.182312 -0.357846 9.19818e-10 0.00398436 
-0.00862881 0.000146206 0.000508228 -0.00950032 0.000640366 0.000500367 754 2321 0 2.50075 -0.948282 0.00156099 3.23824e-09 -0.0555551 
-0.00862881 0.000146206 0.000508228 -0.00776789 0.000664706 0.000501453 754 1880 0 -1.40631 -0.577251 -0.000755216 2.22629e-09 0.0291445 
-0.00710507 -9.34315e-05 0.000502811 -0.00610311 1.38877e-05 0.000499794 783 233 0 -2.17885 0.144006 -0.0139553 2.83413e-09 0.0350605 
-0.00710507 -9.34315e-05 0.000502811 -0.00776789 0.000664706 0.000501453 783 1880 0 0.590204 -0.49535 -0.0416 1.41725e-09 -0.0127148 
-0.00710507 -9.34315e-05 0.000502811 -0.00757765 0.000164453 0.00135272 783 2003 0 1.25011 -0.241495 -2.10277 3.06689e-09 -0.0158107 
-0.00610311 1.38877e-05 0.000499794 -0.00513539 3.44423e-06 0.000777183 233 129 0 -7.69786 -0.130259 -3.65225 7.02846e-09 0.0355354 
-0.00610311 1.38877e-05 0.000499794 -0.00662236 0.000449706 0.00124206 233 880 0 5.90644 -4.78937 -5.71691 7.53883e-09 -0.0279547 
-0.00610311 1.38877e-05 0.000499794 -0.00584914 -0.000358991 0.00139927 233 345 0 -1.56757 3.13388 -7.37395 6.88289e-09 0.00584529 
-0.00513539 3.44423e-06 0.000777183 -0.00417051 0.000127554 0.000505062 129 2061 0 -2.59899 -0.197688 1.01944 3.36942e-09 0.0171604 
-0.00513539 3.44423e-06 0.000777183 -0.00465198 -0.000465806 0.00152963 129 2167 0 -1.66701 0.971996 -1.94903 3.30424e-09 0.00818763 
-0.00513539 3.44423e-06 0.000777183 -0.00564184 0.000639403 0.00137459 129 834 0 1.58514 -2.28023 -2.64301 4.14382e-09 -0.0146517 
-0.00513539 3.44423e-06 0.000777183 -0.00462882 0.000706822 0.00129296 129 1381 0 -2.96149 -4.27346 -2.52301 5.46827e-09 0.0124909 
-0.00417051 0.000127554 0.000505062 -0.00328009 0.000605299 0.000504329 2061 2382 0 -3.49176 -1.95505 -0.612233 4.29513e-09 0.0179837 
-0.00230272 0.000346354 0.000503306 -0.00161266 -0.000394113 0.000504508 2327 109 0 -1.89286 2.74528 0.314482 3.77994e-09 0.0071321 
-0.00230272 0.000346354 0.000503306 -0.00328009 0.000605299 0.000504329 2327 2382 0 4.3944 -0.720257 0.565367 4.60059e-09 -0.01602 
-0.00230272 0.000346354 0.000503306 -0.00195753 0.000586764 0.0014205 2327 378 0 -3.4404 -2.54304 -10.5863 8.63093e-09 0.00761661 
-0.00161266 -0.000394113 0.000504508 -0.00198394 -0.000611884 0.00141948 109 332 0 1.74958 0.353286 -5.80912 5.61647e-09 -0.00143089 
-0.000528118 -0.000260367 0.000503648 -0.00111257 5.11216e-05 0.00126823 1095 2138 0 3.04473 -1.15841 -4.96217 5.54873e-09 -0.00377852 
-0.00950032 0.000640366 0.000500367 -0.00950148 0.00116477 0.00135319 2321 2718 0 0.0489532 -0.763531 -0.967127 1.93769e-09 -0.000802487 
-0.00863205 0.00118188 0.000549926 -0.00949916 0.00168846 0.000499949 2262 628 0 0.0079295 0.0129928 -0.00736021 3.62427e-12 -0.00415736 
-0.00776789 0.000664706 0.000501453 -0.00732286 0.00156738 0.000501986 1880 1456 0 -0.52245 -1.34422 0.12064 2.16348e-09 0.0114997 
-0.00776789 0.000664706 0.000501453 -0.00757765 0.000164453 0.00135272 1880 2003 0 -0.335954 1.42128 -1.97363 3.07893e-09 0.00289895 
-0.00776789 0.000664706 0.000501453 -0.0076505 0.00116735 0.001364 1880 780 0 -0.141842 -1.3628 -2.46758 3.38529e-09 -0.00216056 
-0.00638441 0.00109095 0.000502931 -0.00646592 0.00209575 0.00050229 2309 449 0 -0.0984712 -2.09872 -0.176971 2.7759e-09 -0.00422151 
-0.00638441 0.00109095 0.000502931 -0.00662236 0.000449706 0.00124206 2309 880 0 0.668627 2.52469 -3.04749 4.28427e-09 -0.00995308 
-0.00638441 0.00109095 0.000502931 -0.00574068 0.00164873 0.0010446 2309 2527 0 -0.436391 -0.529327 -0.536912 1.53623e-09 0.00996804 
-0.00520797 0.000976774 0.000506833 -0.00574068 0.00164873 0.0010446 386 2527 0 -0.00386924 0.000542593 -0.00116152 1.8063e-11 -0.00384581 
-0.0041402 0.00125587 0.000512969 -0.0035755 0.00108806 0.00134102 2516 450 0 0.00651627 -0.13483 -0.0317054 5.73444e-12 -0.00414426 
-0.00328009 0.000605299 0.000504329 -0.0035755 0.00108806 0.00134102 2382 450 0 0.69917 -2.85602 -5.02239 5.45631e-09 -0.00222885 
-0.00248604 0.00134501 0.000508091 -0.00232815 0.00152305 0.00149515 2566 1556 0 0.000146813 -0.000575858 -0.00562828 5.66455e-11 -0.00416257 
-0.000981267 0.000697652 0.000503001 -0.000104544 0.00120791 0.000511342 178 654 0 -0.459848 -0.354671 -0.0849255 1.18331e-09 0.000836324 
-0.000981267 0.000697652 0.000503001 -0.00111257 5.11216e-05 0.00126823 178 2138 0 0.717629 4.75157 -7.91841 7.44689e-09 -0.00535238 
-0.000981267 0.000697652 0.000503001 -0.00115524 0.0012396 0.00133961 178 2721 0 0.504152 -2.92585 -4.43974 5.20178e-09 0.000329726 
-0.000104544 0.00120791 0.000511342 -0.000917167 0.00181322 0.000505224 654 513 0 1.77727 -1.53275 0.00457568 3.00994e-09 -0.000429703 
-0.000104544 0.00120791 0.000511342 -0.000313706 0.000673776 0.00134842 654 1833 0 0.0442879 0.147566 -0.24136 7.41331e-10 0.0002813 
-0.00949916 0.00168846 0.000499949 -0.00950148 0.00116477 0.00135319 628 2718 0 -0.0379537 0.538805 -0.847817 1.69761e-09 0.00381558 
-0.00949916 0.00168846 0.000499949 -0.00950134 0.00241456 0.00118942 628 1350 0 -0.0208602 -0.577614 -0.586692 1.48723e-09 0.00421575 
-0.00862596 0.0021858 0.000665196 -0.00865127 0.00291316 0.00136078 786 662 0 -1.11638e-05 7.25301e-05 4.89182e-05 9.78767e-12 -0.00411934 
-0.00732286 0.00156738 0.000501986 -0.00646592 0.00209575 0.00050229 1456 449 0 -2.43806 -1.67274 -0.566451 3.49832e-09 0.0295179 
-0.00732286 0.00156738 0.000501986 -0.00767927 0.00250897 0.00053067 1456 1700 0 0.11468 -0.632336 0.0010928 1.25247e-09 -0.00426692 
-0.00732286 0.00156738 0.000501986 -0.0076505 0.00116735 0.001364 1456 780 0 1.29431 1.10829 -3.18072 3.98161e-09 -0.0179436 
-0.00646592 0.00209575 0.00050229 -0.00558981 0.00259185 0.000505116 449 469 0 -5.64569 -3.30018 0.259695 5.94529e-09 0.0416457 
-0.00646592 0.00209575 0.00050229 -0.00705621 0.00228675 0.00129314 449 1062 0 3.68242 -1.13556 -6.13272 6.33495e-09 -0.0284423 
-0.00646592 0.00209575 0.00050229 -0.00574068 0.00164873 0.0010446 449 2527 0 -0.122795 0.0731061 -0.128756 5.57161e-10 0.00789434 
-0.00465174 0.00221643 0.000503932 -0.00558981 0.00259185 0.000505116 1906 469 0 1.70856 -0.332295 0.024802 2.43498e-09 -0.0163463 
-0.00465174 0.00221643 0.000503932 -0.00397233 0.002965 0.000503876 1906 1002 0 -1.68436 -1.55591 0.0334213 2.95609e-09 0.0113359 
-0.00465174 0.00221643 0.000503932 -0.00452314 0.00170738 0.00136595 1906 443 0 -0.322337 2.25744 -4.48716 4.98677e-09 0.000815353 
-0.00342462 0.00201145 0.000510041 -0.00359666 0.00208327 0.00150953 2667 2475 0 -0.00636661 -0.0441281 0.00140363 3.9272e-12 -0.00427168 
-0.000917167 0.00181322 0.000505224 -0.00163162 0.00215996 0.00113295 513 749 0 3.13398 -0.963144 -2.66404 4.43752e-09 -0.00510221 
-0.000917167 0.00181322 0.000505224 -0.000602997 0.00230529 0.00133338 513 2205 0 -1.11555 -1.01969 -1.98213 3.11181e-09 0.000483616 
-0.00914374 0.00304775 0.000499377 -0.00949932 0.00398479 0.0005005 1161 1397 0 0.181244 -0.453344 -0.081422 1.05025e-09 -0.0115866 
-0.00914374 0.00304775 0.000499377 -0.00950134 0.00241456 0.00118942 1161 1350 0 0.141072 0.173742 -0.170882 7.20977e-10 -0.00905738 
-0.00914374 0.00304775 0.000499377 -0.00950183 0.00343889 0.00134998 1161 1009 0 0.198265 -0.105905 -0.403249 1.00114e-09 -0.00926933 
-0.00914374 0.00304775 0.000499377 -0.00865127 0.00291316 0.00136078 1161 662 0 -1.33636 0.407755 -3.93185 4.33456e-09 0.0257226 
-0.00767927 0.00250897 0.00053067 -0.00767257 0.00351512 0.000500273 1700 2563 0 0.112598 -0.632363 0.000158313 1.25026e-09 -0.00846381 
-0.00676935 0.00306433 0.000506098 -0.00767257 0.00351512 0.000500273 384 2563 0 0.000171797 0.000879856 -5.59976e-05 6.95515e-12 -0.00411039 
-0.00558981 0.00259185 0.000505116 -0.00491258 0.00333923 0.000501986 469 2218 0 -3.9322 -3.71842 -0.297574 5.23598e-09 0.0211038 
-0.00491258 0.00333923 0.000501986 -0.00397233 0.002965 0.000503876 2218 1002 0 -0.496348 0.253526 -0.0406049 1.15269e-09 0.00842363 
-0.00491258 0.00333923 0.000501986 -0.00534384 0.00425277 0.000504365 2218 263 0 0.94994 -1.88702 0.225167 2.80388e-09 -0.0116745 
-0.00491258 0.00333923 0.000501986 -0.00433721 0.00417079 0.000502952 2218 136 0 -0.666544 -1.04503 -0.199615 1.96648e-09 0.00339056 
-0.00491258 0.00333923 0.000501986 -0.00439912 0.00332255 0.00136796 2218 1380 0 -5.30572 -0.553311 -11.1584 9.06002e-09 0.0167694 
-0.00397233 0.002965 0.000503876 -0.003149 0.00355577 0.000505094 1002 963 0 -0.0436836 -0.037716 0.00470795 2.54739e-10 0.00410442 
-0.00397233 0.002965 0.000503876 -0.0034227 0.00306364 0.00134509 1002 2113 0 -2.83154 -0.965112 -5.59112 5.80652e-09 0.0114628 
-0.00256886 0.00260753 0.000521935 -0.00225507 0.00333588 0.00116011 426 46 0 3.95211e-05 9.85805e-05 5.54753e-05 3.72774e-12 -0.00415194 