ITEM: TIMESTEP
25000000
ITEM: NUMBER OF ATOMS
1440
ITEM: BOX BOUNDS mm pp mm
-0.003 0.003
-0.002 0.002
0 0.00715299
ITEM: ATOMS id type type x y z ix iy iz vx vy vz fx fy fz omegax omegay omegaz radius f_Temp[0] f_heatSource[0] f_heatFlux[0] c_coord[0] 
167 1 1 -0.00251234 -0.00169899 0.000476715 0 1 0 -1.75955e-08 2.12471e-08 -9.61683e-09 3.17412e-10 -4.39e-09 -5.46265e-11 -2.55408e-05 1.35477e-05 7.65205e-08 0.0005 573 0 0 6 
1 1 1 -0.00250472 -0.00108348 0.00124486 0 0 0 -1.48038e-08 4.32307e-08 3.05403e-09 1.0121e-09 -6.4094e-09 -1.8149e-09 -4.04729e-05 -4.727e-05 -9.39259e-06 0.0005 573 0 0 5 
565 2 2 -0.0029 -0.00195935 9.99957e-05 0 1 0 -6.24269e-09 6.37531e-09 1.52747e-09 -1.29567e-12 -4.86094e-13 -6.00298e-12 -6.30761e-05 -5.47558e-05 8.07142e-05 0.0001 573 0 0 1 
551 2 2 -0.00252085 -0.00121868 0.0001 0 0 0 0.000769195 0.000395481 3.36088e-13 5.11425e-20 2.55568e-20 0 -3.95481 7.69196 57.9322 0.0001 573 0 0 0 
506 2 2 -0.0029 -0.00143862 9.99966e-05 0 0 0 -7.47153e-09 4.57743e-09 -3.98208e-09 4.56189e-12 -3.96057e-15 3.18643e-12 -3e-05 -2.27242e-05 2.27164e-05 0.0001 573 0 0 1 
532 2 2 -0.0028999 -0.00116238 0.0001 0 0 0 3.19747e-06 0.00184677 5.44562e-13 -3.86444e-22 -1.99579e-19 0 -18.4678 0.0319747 19.0777 0.0001 573 0 0 0 
456 2 2 -0.00233287 -0.00105878 0.0001 0 0 0 -0.000172914 -0.00402121 1.20666e-13 1.23656e-20 -3.95721e-19 0 40.2121 -1.72914 71.0106 0.0001 573 0 0 0 
1007 2 2 -0.00143598 -0.00155929 0.0001 0 0 0 0.000742522 0.000452596 4.42257e-14 -4.94726e-20 -4.98921e-20 0 -4.52596 7.42522 -13.7059 0.0001 573 0 0 0 
13 1 1 -0.000907999 -0.00128732 0.000495692 0 0 0 2.38673e-08 2.50117e-07 -8.75125e-09 3.33379e-09 -1.35767e-08 1.84275e-09 -0.000495861 0.000116973 0.000337516 0.0005 573 0 0 3 
11 1 1 -4.75008e-05 -0.00178566 0.000496794 0 0 0 -2.28859e-08 2.16805e-07 4.91539e-10 2.59488e-09 -1.27854e-08 -1.32088e-09 -0.000153284 -5.99161e-05 -0.00030221 0.0005 573 0 0 5 
35 1 1 -0.000318769 -0.00126404 0.00129543 0 0 0 -3.52428e-09 3.22937e-07 1.04909e-07 3.64538e-09 -2.30832e-08 9.00103e-10 0.000586582 -0.00015971 -0.000222744 0.0005 573 0 0 14 
974 2 2 -0.000206007 -0.00133465 0.0001 0 0 0 -0.00120577 8.44921e-05 -6.1594e-13 1.00654e-19 -6.18261e-21 0 -0.844921 -12.0577 -99.516 0.0001 573 0 0 0 
1022 2 2 -1.22732e-05 -0.00126617 0.0001 0 0 0 -0.00082423 -0.000509034 -3.91636e-14 1.50907e-20 -4.94596e-20 0 5.09034 -8.2423 65.1298 0.0001 573 0 0 0 
467 2 2 -0.00255788 -0.000920863 0.0001 0 0 0 -0.00205205 0.00162544 4.75071e-13 -1.97853e-19 4.12198e-20 0 -16.2544 -20.5206 -83.4339 0.0001 573 0 0 0 
63 1 1 -0.00217451 -0.000154826 0.00127438 0 0 0 -2.27858e-08 9.54847e-08 -2.60697e-08 -1.75298e-10 -1.03002e-08 -3.05316e-09 8.42924e-06 4.56837e-06 0.000120022 0.0005 573 0 0 6 
1032 2 2 -0.00238398 -0.000792606 0.0001 0 0 0 0.00287078 -0.00137303 -4.76958e-13 1.97837e-19 -1.00656e-19 0 13.7304 28.7078 2.10077 0.0001 573 0 0 0 
996 2 2 -0.00202011 -0.000495019 0.0001 0 0 0 0.000174505 -0.0055193 -1.36451e-13 -1.23654e-20 3.95724e-19 0 55.193 1.74505 -112.835 0.0001 573 0 0 0 
97 1 1 -0.00184701 -0.000968218 0.000503088 0 0 0 -2.52427e-08 5.07947e-08 4.0881e-09 2.8891e-09 -1.15993e-08 -2.51458e-09 0.000100749 4.35683e-05 3.92562e-05 0.0005 573 0 0 4 
149 1 1 -0.00156995 -1.86416e-05 0.000486744 0 0 0 4.00857e-08 2.71399e-08 1.67579e-08 1.41591e-09 -1.18145e-08 -3.88602e-09 -4.23179e-05 9.63523e-05 -0.00014552 0.0005 573 0 0 4 
59 1 1 -0.00140096 -0.000769608 0.00138762 0 0 0 -6.48126e-08 1.88341e-07 3.74802e-08 4.78515e-10 -1.61651e-08 -4.26994e-09 0.00084102 -0.000894637 -0.000155722 0.0005 573 0 0 4 
972 2 2 -0.00123729 -0.000193262 0.00141964 0 0 0 5.39626e-08 1.59923e-07 3.13938e-07 -1.69602e-12 -1.45027e-10 6.50285e-11 -0.00192597 0.00233438 -0.000536818 0.0001 573 0 0 3 
1040 2 2 -0.000727032 -0.000367239 0.0001 0 0 0 -0.00172058 0.00300201 -1.434e-13 6.21786e-20 1.94391e-19 0 -30.0201 -17.2058 -104.709 0.0001 573 0 0 0 
985 2 2 -0.000754823 -0.000845139 0.0001 0 0 0 -0.00287079 -0.00374914 2.66597e-13 -1.94431e-19 -1.67706e-19 0 37.4914 -28.7079 123.756 0.0001 573 0 0 0 
952 2 2 -0.00054475 -0.00028178 0.0001 0 0 0 0.000644442 -0.000829661 6.349e-13 5.03294e-20 3.83404e-20 0 8.29661 6.44442 6.69969 0.0001 573 0 0 0 
89 1 1 -0.000532203 -0.000304175 0.00125751 0 0 0 6.24772e-08 2.40937e-07 2.55042e-07 -2.14359e-09 -2.05888e-08 -2.36548e-09 -0.000448596 0.000589397 0.000119695 0.0005 573 0 0 23 
1432 2 2 -0.000344629 -0.000280769 0.0001 0 0 0 0.000698643 -0.00217801 -6.1594e-13 6.45381e-21 5.45358e-21 0 21.7802 6.98643 -17.7772 0.0001 573 0 0 0 
126 1 1 -0.00250982 0.000303629 0.000480078 0 0 0 -1.23378e-08 3.39909e-08 -2.4646e-10 -3.9611e-10 -4.24488e-09 -2.67704e-10 -3.82045e-05 -4.31227e-05 7.7707e-05 0.0005 573 0 0 5 
131 1 1 -0.00251083 0.000782089 0.00134583 0 0 0 -6.32653e-08 5.06119e-08 -3.29525e-08 -1.02988e-09 -7.08626e-09 6.81179e-10 -4.20141e-05 3.13532e-05 8.41854e-05 0.0005 573 0 0 6 
1016 2 2 -0.00270092 0.00072677 0.0001 0 0 0 7.1326e-05 3.41686e-05 2.94394e-13 -6.18262e-21 2.22213e-21 0 -0.341686 0.71326 14.0312 0.0001 573 0 0 0 
501 2 2 -0.0029 0.000555221 9.99984e-05 0 -1 0 -4.29256e-09 -2.54492e-09 -7.05125e-09 5.31531e-12 -3.91896e-13 -1.62286e-13 4.80462e-05 2.56773e-05 -3.97079e-05 0.0001 573 0 0 1 
1014 2 2 -0.00204574 8.41871e-05 0.0001 0 0 0 0.000191889 -0.00145283 -1.15604e-13 -1.25821e-20 9.71918e-20 0 14.5283 1.9189 56.6157 0.0001 573 0 0 0 
491 2 2 -0.0024541 0.000774268 0.0001 0 0 0 -0.000259464 0.000670882 3.56936e-13 2.51638e-20 -3.92983e-21 0 -6.70882 -2.59464 -29.5927 0.0001 573 0 0 0 
538 2 2 -0.00289883 0.000755678 0.0001 0 0 0 6.9674e-05 2.7242e-05 -1.22553e-13 -5.16715e-21 1.13528e-21 0 -0.27242 0.69674 -3.8506 0.0001 573 0 0 0 
494 2 2 -0.00269641 0.000932744 0.0001 0 -1 0 0.00298163 0.000686545 4.12529e-13 1.97858e-19 -3.69606e-20 0 -6.86546 29.8163 -93.4666 0.0001 573 0 0 0 
530 2 2 -0.00224975 0.000694072 0.0001 0 0 0 0.00285871 -0.000779611 3.29139e-13 -2.01307e-19 5.03281e-20 0 7.79611 28.5871 -58.5304 0.0001 573 0 0 0 
505 2 2 -0.0020891 0.000517568 0.0001 0 0 0 0.000651557 -0.000125597 -9.47565e-14 -2.39952e-20 1.23657e-20 0 1.25597 6.51557 -8.49135 0.0001 573 0 0 0 
1038 2 2 -0.00183913 0.000364345 0.0001 0 0 0 -0.00109098 0.00021552 2.4575e-13 4.02882e-20 -2.49485e-20 0 -2.1552 -10.9098 18.4116 0.0001 573 0 0 0 
988 2 2 -0.00160002 0.000447061 0.0001 0 0 0 0.00068444 0.000396121 1.06767e-13 5.03256e-20 -2.08541e-20 5.47924e-21 -3.96122 6.8444 12.7006 0.0001 573 0 0 0 
147 1 1 -0.00129156 0.000941049 0.000479613 0 0 0 -4.42599e-08 5.04159e-08 -3.15336e-08 -3.36143e-09 -1.14609e-08 -5.34826e-10 -9.21715e-05 -6.82654e-05 0.000249823 0.0005 573 0 0 7 
79 1 1 -0.00123328 0.000396657 0.00131025 0 0 0 -3.94994e-08 1.33174e-07 5.34425e-08 -1.26935e-09 -2.02132e-08 -1.15703e-09 -0.000139706 -0.000336553 0.000275936 0.0005 573 0 0 22 
966 2 2 -0.00165499 0.000648626 0.0001 0 0 0 -0.000226172 0.000230143 4.75071e-13 -2.47332e-20 2.45151e-20 0 -2.30143 -2.26172 -3.24665 0.0001 573 0 0 0 
960 2 2 -0.00140196 0.00041933 0.0001 0 0 0 0.00070404 0.000527226 2.73546e-13 -3.43394e-20 4.56683e-20 6.00864e-21 -5.27227 7.0404 23.3103 0.0001 573 0 0 0 
1049 2 2 -0.00120425 0.000449523 0.0001 0 0 0 0.000823091 -0.000239336 -5.60345e-13 9.89319e-20 -2.49481e-20 -1.43466e-20 2.39336 8.23091 -36.1644 0.0001 573 0 0 0 
1010 2 2 -0.00176498 0.000958869 0.0001 0 0 0 -0.000279311 0.00172945 3.08292e-13 9.94893e-21 -8.20475e-21 0 -17.2945 -2.79311 -56.7341 0.0001 573 0 0 0 
701 2 2 -0.000272382 0.000796585 0.0001 0 0 0 -0.00144625 -9.53144e-05 -8.08583e-14 -3.12721e-21 -3.695e-21 0 0.953144 -14.4625 -11.5971 0.0001 573 0 0 0 
127 1 1 -0.000543471 0.000303659 0.000488768 0 0 0 -5.48599e-08 6.6271e-08 5.14212e-08 -4.79862e-09 -1.25448e-08 -2.62815e-09 -8.00292e-05 -0.000103628 -0.000211312 0.0005 573 0 0 11 
979 2 2 -0.000824758 0.000735693 0.000795726 0 0 0 -1.96629e-08 1.38786e-07 -3.16898e-09 1.67118e-11 -1.08056e-11 1.04598e-11 -0.000189462 0.000162119 0.000226153 0.0001 573 0 0 3 
1025 2 2 -0.000713301 0.000232599 0.00105983 0 0 0 -5.63156e-09 1.71589e-07 9.69812e-08 -1.03129e-10 -2.55615e-10 -2.92106e-11 -0.000227278 0.00126306 -0.000608213 0.0001 573 0 0 3 
1072 2 2 -0.000251389 0.000744263 0.000772591 0 0 0 -1.35378e-07 1.52414e-07 7.81584e-09 1.96855e-10 -1.84702e-10 -8.81633e-11 -0.00103935 -0.000952414 0.000954416 0.0001 573 0 0 3 
971 2 2 -7.81261e-05 0.000577861 0.000750047 0 0 0 -8.40965e-08 1.48544e-07 4.54774e-08 4.91765e-12 -1.52789e-11 -1.02881e-10 -0.000348329 -0.000284353 0.00116368 0.0001 573 0 0 3 
1064 2 2 -0.000128847 0.000718044 0.000616719 0 0 0 -8.06299e-08 1.4697e-07 6.0231e-08 4.33292e-11 -2.21676e-10 2.22882e-11 -8.25716e-05 0.000486544 0.000415163 0.0001 573 0 0 5 
1071 2 2 -0.000727508 0.000847909 0.000661748 0 0 0 -3.15832e-08 1.0827e-07 -1.29744e-08 5.18557e-11 -8.44887e-11 5.38528e-11 -7.94336e-05 -0.000176256 -0.000391338 0.0001 573 0 0 5 
1026 2 2 -0.000779173 0.000994922 0.000787119 0 0 0 -4.80389e-08 1.08163e-07 -2.40298e-08 1.94117e-11 3.56451e-11 1.48183e-11 0.000528215 0.000243384 -0.000573091 0.0001 573 0 0 3 
1419 2 2 -0.000128451 0.000533814 0.0001 0 0 0 -0.000716469 0.00301605 -4.90856e-13 4.94642e-20 7.10719e-20 0 -30.1605 -7.16469 -35.5773 0.0001 573 0 0 0 
759 2 2 -9.00627e-05 0.000243122 0.0001 0 0 0 0.000215344 0.00112883 -2.54586e-13 6.57441e-21 4.82107e-21 0 -11.2883 2.15345 -25.2891 0.0001 573 0 0 0 
978 2 2 -1.28721e-05 0.000821238 0.0001 0 0 0 0.000678601 0.00300014 7.89713e-14 1.13336e-20 -5.89539e-21 0 -30.0014 6.78601 48.0074 0.0001 573 0 0 0 
989 2 2 -0.000535472 0.000805831 0.000817035 0 0 0 -0.00280954 0.000612251 -0.000867963 -1.67243e-08 3.51355e-09 -5.84167e-09 -11.192 -51.5469 -0.127214 0.0001 573 0 0 2 
970 2 2 -0.000439444 0.000263586 0.00142793 0 0 0 -0.000573568 5.7808e-05 0.000120702 2.14429e-10 -3.61112e-10 2.94789e-10 22.3656 129.088 44.8097 0.0001 573 0 0 2 
164 1 1 -0.00229252 0.00126944 0.00049373 0 0 0 -2.53038e-08 3.7002e-08 -5.68759e-09 -5.5844e-10 -5.41845e-09 -9.49873e-10 -3.58002e-05 -5.242e-05 -4.11291e-05 0.0005 573 0 0 3 
155 1 1 -0.00251276 0.00179029 0.00130716 0 0 0 -3.69658e-08 5.58105e-08 -6.8767e-09 -3.66754e-10 -7.11013e-09 -1.55926e-09 1.30309e-05 -2.71181e-06 6.63863e-06 0.0005 573 0 0 12 
557 2 2 -0.00252078 0.00176008 0.0001 0 0 0 0.00294505 -0.00176912 -6.29838e-13 -1.20944e-19 -1.42894e-19 0 17.6912 29.4505 66.2165 0.0001 573 0 0 0 
458 2 2 -0.00289825 0.00181144 0.0001 0 0 0 3.11835e-05 -0.000523428 5.51511e-13 2.38966e-21 -4.9464e-20 0 5.23429 0.311835 -41.1137 0.0001 573 0 0 0 
976 2 2 -0.00177909 0.00117725 0.0001 0 0 0 0.00241263 0.00156067 6.62697e-13 -1.57591e-19 -9.89303e-20 0 -15.6068 24.1263 37.0567 0.0001 573 0 0 0 
1063 2 2 -0.0016109 0.00128814 0.0001 0 0 0 0.00149903 0.00205252 -3.72721e-13 1.00654e-19 2.01312e-19 0 -20.5252 14.9903 -27.898 0.0001 573 0 0 0 
980 2 2 -0.00184987 0.00136454 0.0001 0 0 0 -0.000151254 0.000726292 -3.44924e-13 -1.25823e-20 5.03267e-20 0 -7.26292 -1.51254 6.59908 0.0001 573 0 0 0 
998 2 2 -0.00178897 0.0015554 0.0001 0 0 0 -0.000544517 0.000219856 -2.47637e-13 -5.03285e-20 8.19339e-23 0 -2.19856 -5.44518 -12.7154 0.0001 573 0 0 0 
156 1 1 -0.00158739 0.00196657 0.000489085 0 0 0 -5.3437e-08 8.31322e-08 -6.57316e-08 3.49505e-10 -8.45193e-09 -1.11305e-09 -0.000148081 4.2465e-05 0.000131494 0.0005 573 0 0 3 
194 1 1 -0.00167103 0.00128689 0.00130596 0 0 0 -1.15606e-07 4.95933e-08 -6.71517e-08 -2.68502e-09 -1.84054e-08 -2.53618e-09 6.29552e-05 3.31107e-06 -7.49523e-05 0.0005 573 0 0 15 
1070 2 2 -0.00107912 0.00183772 0.0001 0 0 0 0.000669043 0.00060584 -6.43736e-13 -4.94588e-20 -2.30445e-20 0 -6.0584 6.69043 18.9434 0.0001 573 0 0 0 
1028 2 2 -0.00107288 0.0013526 0.0001 0 0 0 7.62342e-05 -2.73083e-05 -6.43736e-13 6.18279e-21 -3.09117e-21 0 0.273083 0.762342 -30.0483 0.0001 573 0 0 0 
1360 2 2 -6.15301e-05 0.00176188 0.0001 0 -1 0 -0.000481479 -0.000507588 -1.64248e-13 -5.02817e-20 4.85943e-20 0 5.07588 -4.81479 -200.78 0.0001 573 0 0 0 
994 2 2 -0.000572182 0.00187255 0.0001 0 0 0 -0.000901916 -0.000527089 -2.47637e-13 8.53877e-20 -5.03267e-20 0 5.2709 -9.01916 3.03064 0.0001 573 0 0 0 
1068 2 2 -0.000742043 0.00176199 0.0001 0 0 0 -0.000894691 -0.000727877 -4.28314e-13 9.97915e-20 -1.30294e-20 0 7.27877 -8.94691 -32.926 0.0001 573 0 0 0 
1074 2 2 -0.000572705 0.00165552 0.0001 0 0 0 -0.000603318 -0.000281979 4.26427e-13 -1.36333e-20 2.47309e-20 0 2.81979 -6.03318 -23.8646 0.0001 573 0 0 0 
162 1 1 -0.000808944 0.00190422 0.00108049 0 0 0 -1.48096e-07 2.57696e-07 -1.88765e-07 2.81794e-09 -1.9998e-08 -2.7574e-09 -0.000180345 -5.87555e-06 3.83356e-06 0.0005 573 0 0 7 
958 2 2 -0.000373193 0.00190071 0.0001 0 0 0 -0.000960902 0.000869919 2.52699e-13 -9.89292e-20 1.01692e-19 0 -8.6992 -9.60902 70.5675 0.0001 573 0 0 0 
171 1 1 -0.000334176 0.00126766 0.000491157 0 0 0 -5.90378e-08 1.3018e-07 -3.18333e-08 9.38701e-10 -1.4204e-08 -2.02183e-09 -0.000127162 -4.78625e-05 0.000192017 0.0005 573 0 0 10 
1018 2 2 -0.000841315 0.001159 0.0001 0 0 0 0.000744639 -0.000473745 -4.76958e-13 -4.94612e-20 -2.52682e-20 0 4.73745 7.44639 59.2359 0.0001 573 0 0 0 
22 1 1 -0.0025052 -0.00160583 0.00208747 0 0 0 -6.23125e-08 1.62916e-07 4.9711e-08 -1.06247e-10 -7.93041e-09 -1.99123e-09 -0.000179325 -8.42964e-05 0.000226685 0.0005 573 0 0 6 
499 2 2 -0.00216772 -0.00191842 0.00170225 0 1 0 -1.14738e-07 3.25993e-07 -1.30695e-07 1.00888e-10 -1.49398e-10 -8.36531e-11 -0.00349196 -0.000627825 0.000679384 0.0001 573 0 0 3 
2 1 1 -0.00165925 -0.00172675 0.00144786 0 0 0 -1.14381e-07 2.52944e-07 -1.89007e-07 2.28914e-09 -1.6314e-08 -9.70136e-09 -0.000601359 6.31635e-05 0.000306502 0.0005 573 0 0 10 
8 1 1 -0.00166906 -0.00182211 0.00257456 0 0 0 -1.93032e-07 3.8166e-07 -1.33147e-07 -1.69787e-09 -2.16327e-08 -6.36136e-09 0.000492286 0.000542609 -8.92637e-06 0.0005 573 0 0 7 
362 2 2 -0.000677189 -0.00193283 0.00207527 0 1 0 -2.62564e-07 3.04891e-07 -2.83304e-07 2.61157e-11 -2.41917e-10 4.45448e-11 0.00227603 0.000912775 -0.00138894 0.0001 573 0 0 3 
24 1 1 -0.000942142 -0.00139513 0.00204919 0 0 0 -1.20033e-07 3.73222e-07 3.24458e-08 2.07566e-09 -2.57266e-08 -6.54608e-09 0.000562388 -0.000288359 -0.000685359 0.0005 573 0 0 9 
28 1 1 -7.09023e-05 -0.00142502 0.00252436 0 0 0 4.28066e-08 -4.16515e-07 1.77149e-07 1.95429e-10 -3.3068e-08 8.91036e-11 0.00222086 0.00160422 -0.000550519 0.0005 573 0 0 15 
908 2 2 -1.3292e-05 -0.0019615 0.00278678 0 1 0 -3.75006e-07 -6.31241e-07 -2.72821e-07 -9.57704e-11 -4.41556e-10 1.18661e-10 0.00817758 -0.00569769 -0.00535157 0.0001 573 0 0 4 
80 1 1 -0.00246275 -0.000607743 0.00211437 0 0 0 -2.70722e-08 1.17595e-07 1.55114e-08 3.13379e-10 -1.03976e-08 -2.97714e-09 -0.000131024 4.83567e-05 -1.16052e-05 0.0005 573 0 0 10 
574 2 2 -0.00218624 -0.000120727 0.00232967 0 0 0 -6.23741e-08 1.2839e-07 1.32501e-08 1.55662e-11 -1.25147e-10 -8.52599e-11 4.35091e-05 -0.00115125 2.43918e-05 0.0001 573 0 0 5 
560 2 2 -0.00205818 -0.000436004 0.00252281 0 0 0 -1.11285e-07 2.05328e-07 7.25098e-08 2.32409e-11 -1.2151e-10 -1.37928e-11 -0.000310037 -0.000518318 -0.000612475 0.0001 573 0 0 6 
549 2 2 -0.00221569 -0.000709962 0.0026515 0 0 0 -9.21267e-08 1.51097e-07 6.25361e-08 8.69373e-11 -1.60314e-10 8.13559e-12 0.000317395 -0.00106317 0.000264122 0.0001 573 0 0 4 
558 2 2 -0.00208375 -0.000262702 0.0024263 0 0 0 -7.42158e-08 1.7074e-07 2.81209e-08 2.77714e-11 -1.38741e-10 -7.79197e-11 -0.000446428 0.00125753 -0.000101628 0.0001 573 0 0 4 
563 2 2 -0.00221487 -0.000468565 0.00264275 0 0 0 -1.96712e-07 4.28196e-07 1.56416e-08 8.55921e-11 -2.59781e-11 -6.93726e-11 -0.00247581 -0.000710288 -6.83963e-05 0.0001 573 0 0 5 
539 2 2 -0.0021746 -0.000583816 0.00280116 0 0 0 -1.28019e-07 3.31399e-07 -7.51581e-08 9.8038e-11 3.61122e-11 -1.5046e-11 0.00368581 0.00168924 -7.55918e-05 0.0001 573 0 0 3 
468 2 2 -0.00210495 -3.03196e-06 0.00246946 0 0 0 -8.67893e-08 1.06558e-07 5.3366e-08 7.45032e-11 -6.52075e-11 -4.80352e-11 -0.000699813 -0.000756306 -0.000389637 0.0001 573 0 0 3 
457 2 2 -0.00211185 -0.000242623 0.0026233 0 0 0 -3.61426e-06 -2.91618e-05 2.51609e-06 -1.45689e-11 -1.05466e-10 -9.02934e-11 0.400744 -0.110404 -0.718151 0.0001 573 0 0 3 
509 2 2 -0.00204179 -0.000404251 0.00271959 0 0 0 1.15892e-05 -3.74196e-05 5.16641e-06 1.30866e-10 -1.04759e-10 4.59991e-11 0.359505 0.0745704 -0.278032 0.0001 573 0 0 3 
100 1 1 -0.00162919 -0.000836471 0.0026477 0 0 0 -5.93446e-08 2.45353e-07 6.1694e-09 5.325e-10 -2.23974e-08 -5.14249e-09 -9.48856e-05 0.000427124 0.000166912 0.0005 573 0 0 17 
142 1 1 -0.00164436 -3.60367e-05 0.00208635 0 0 0 -1.09828e-07 1.5314e-07 -3.50151e-08 9.78151e-10 -1.98008e-08 -3.48079e-09 -6.95204e-05 -0.000169238 7.43868e-05 0.0005 573 0 0 16 
555 2 2 -0.00111333 -0.000904387 0.00234895 0 0 0 -5.06005e-08 2.74157e-07 3.49549e-08 2.24618e-11 -2.08128e-10 -5.66785e-11 -0.0011868 -0.00216515 0.000273199 0.0001 573 0 0 3 
476 2 2 -0.00190405 -0.000311852 0.00255164 0 0 0 -1.14713e-07 2.38778e-07 -9.68028e-10 4.78148e-11 -2.85019e-10 -1.05316e-10 -0.00126216 0.000156525 0.000752327 0.0001 573 0 0 3 
1044 2 2 -0.00105906 -0.000146194 0.00149722 0 0 0 6.42947e-08 2.47161e-07 2.53221e-07 1.94292e-11 -1.41257e-10 4.36505e-11 -0.000314992 -0.00221163 0.00052204 0.0001 573 0 0 4 
556 2 2 -0.0016597 -0.000237259 0.0026514 0 0 0 -4.83198e-07 2.30653e-07 -2.05669e-08 -1.19414e-10 -8.49467e-11 -9.53317e-11 -0.000441143 -0.00243279 -0.00222708 0.0001 573 0 0 4 
466 2 2 -0.00197427 -0.000103173 0.002583 0 0 0 -1.07531e-05 -2.59337e-05 -1.06356e-05 3.73066e-11 -8.41624e-11 -3.3013e-11 0.367884 -0.117065 -0.0790981 0.0001 573 0 0 4 
571 2 2 -0.0018468 -0.000194151 0.0027074 0 0 0 -1.03529e-05 -2.71316e-05 -1.19315e-05 3.81845e-12 -9.71373e-11 -2.33612e-11 -0.0774844 -0.0699235 0.343643 0.0001 573 0 0 4 
492 2 2 -0.00172703 -0.000277959 0.0028439 0 0 0 -2.90974e-07 1.3809e-06 -3.25712e-06 6.61116e-11 -1.58674e-10 -8.88453e-11 -0.0357185 0.0041036 0.00369068 0.0001 573 0 0 4 
479 2 2 -0.001961 -0.000275783 0.00284986 0 0 0 -5.36927e-06 -1.85011e-05 -2.98968e-06 5.81389e-11 3.93556e-11 9.98375e-12 -0.602923 -0.259902 0.354079 0.0001 573 0 0 3 
469 2 2 -0.000231584 -0.000866344 0.00173646 0 0 0 -0.00140649 0.0018576 -0.00145145 0 0 -1.41357e-07 -17.8983 3.75946 -9.77582 0.0001 573 0 0 0 
553 2 2 -7.92437e-05 -0.000817273 0.00161641 0 0 0 4.46887e-05 -7.51881e-06 -2.22984e-05 3.35736e-08 -5.90045e-09 -1.70976e-08 0.104944 0.552998 0.0149987 0.0001 573 0 0 2 
570 2 2 -0.000289751 -0.000741575 0.00158902 0 0 0 -2.52155e-08 2.39449e-07 3.03067e-07 1.67322e-10 -1.86517e-10 -1.4909e-10 0.000180077 -0.00140376 -0.000495759 0.0001 573 0 0 3 
98 1 1 -0.000761113 -0.00044115 0.00220288 0 0 0 4.28774e-08 2.33368e-07 3.84168e-07 4.51887e-09 -2.6374e-08 -1.85335e-09 0.000253408 -0.000812354 9.39675e-05 0.0005 573 0 0 8 
954 2 2 -9.8486e-05 -0.000209974 0.00166126 0 0 0 1.88423e-08 4.76608e-07 2.24013e-07 1.73558e-10 -3.04702e-12 -1.36007e-10 0.00146021 -0.00109288 0.00141549 0.0001 573 0 0 5 
981 2 2 -0.000141993 -0.000713932 0.00145709 0 0 0 4.08355e-08 3.16512e-07 3.94758e-07 2.75114e-11 -1.82969e-10 -5.79654e-11 -0.000751231 -0.00195843 -0.000367301 0.0001 573 0 0 6 
1062 2 2 -0.000122531 -0.000576468 0.00160106 0 0 0 1.98414e-08 4.19444e-07 3.95675e-07 6.10156e-11 -1.96272e-10 -1.58721e-10 0.000175814 0.00307956 0.00216374 0.0001 573 0 0 4 
1009 2 2 -0.000200088 -0.000450217 0.00173539 0 0 0 3.57069e-09 4.83062e-07 3.47657e-07 -3.80994e-11 -4.20678e-11 -2.20455e-10 -0.00125422 -0.00315457 -0.0014835 0.0001 573 0 0 3 
1054 2 2 -3.73901e-05 -0.000398062 0.00163142 0 0 0 -1.75064e-08 4.96201e-07 2.81642e-07 7.85499e-11 -1.7495e-10 -1.24991e-10 -0.000975754 -0.00133084 -0.0015811 0.0001 573 0 0 5 
959 2 2 -2.09589e-06 -0.000179201 0.00183378 0 0 0 -1.49764e-07 4.40819e-07 3.37808e-07 2.06866e-11 -4.32414e-10 4.71924e-11 -0.00041234 -0.000704262 -0.000211888 0.0001 573 0 0 3 
1035 2 2 -0.000234649 -7.93197e-05 0.00172751 0 0 0 -3.68178e-08 3.14122e-07 3.26605e-07 5.85506e-11 -7.12583e-11 -1.10825e-10 -0.00284941 0.00388369 0.000883015 0.0001 573 0 0 5 
387 2 2 -0.000778218 -2.60163e-05 0.00172879 0 0 0 2.08004e-08 2.70097e-07 2.37973e-07 2.77986e-11 8.0277e-11 -1.56162e-10 0.000223497 -0.0013971 0.00291571 0.0001 573 0 0 4 
1037 2 2 -0.000936896 -3.22643e-05 0.0016072 0 0 0 6.41072e-08 3.22695e-07 1.97005e-07 -1.31585e-10 -3.44814e-10 1.65634e-11 -0.00110362 0.00195503 -0.000632763 0.0001 573 0 0 5 
521 2 2 -0.000443448 -5.64309e-06 0.0019394 0 0 0 -2.62768e-07 3.43241e-07 1.48954e-07 -9.91604e-11 -5.60715e-11 6.46126e-12 4.68194e-05 0.00126219 0.00201723 0.0001 573 0 0 3 
111 1 1 -0.00251516 0.000374261 0.00224724 0 0 0 -6.35108e-08 7.81151e-08 -3.4742e-08 4.72284e-10 -8.56092e-09 -2.04914e-09 -2.04745e-05 4.33726e-05 7.55662e-05 0.0005 573 0 0 10 
531 2 2 -0.0029 0.000854647 0.0017967 0 0 0 -8.71639e-10 -6.93578e-08 4.29423e-08 -1.49204e-12 -3.6256e-11 -8.59985e-12 0.00210679 0.000616543 -0.000743097 0.0001 573 0 0 2 
550 2 2 -0.0029 0.000953495 0.00197056 0 0 0 3.20845e-09 -3.45502e-08 2.88025e-08 1.30911e-12 -2.01115e-10 6.79449e-11 -0.0024875 -0.000834042 0.00022269 0.0001 573 0 0 2 
547 2 2 -0.00223012 0.00087326 0.00241972 0 0 0 -3.78444e-07 1.23938e-07 3.59662e-07 2.50773e-11 -1.21472e-10 1.43964e-11 -0.000858761 -0.00838137 0.000418097 0.0001 573 0 0 3 
483 2 2 -0.0019908 0.000227541 0.00249928 0 0 0 -1.49582e-07 -2.24353e-08 6.21999e-08 7.02338e-11 -1.30521e-10 -2.69546e-11 0.00277267 0.000563874 8.46137e-06 0.0001 573 0 0 3 
482 2 2 -0.00178709 0.000347724 0.00252494 0 0 0 2.27608e-09 1.22486e-07 4.84983e-08 2.49893e-11 -2.24185e-10 -1.03289e-10 2.63853e-05 0.0048467 0.00234143 0.0001 573 0 0 3 
961 2 2 -0.00124351 0.000945546 0.00155235 0 0 0 -7.92066e-08 1.58361e-07 4.30654e-08 -2.99783e-11 -2.83064e-10 -9.64783e-11 -0.00104984 -0.000801046 0.000379192 0.0001 573 0 0 4 
185 1 1 -0.0016329 0.000907344 0.00237311 0 0 0 -4.15394e-07 1.87487e-07 -6.02701e-08 2.04606e-09 -2.10707e-08 -3.77141e-09 0.000231956 -0.000722595 0.000158775 0.0005 573 0 0 8 
999 2 2 -0.00106495 0.000883589 0.00161776 0 0 0 -1.02921e-07 1.91342e-07 9.12056e-08 8.11825e-11 -1.5387e-10 -3.82175e-11 0.00211177 -0.000184308 0.000461717 0.0001 573 0 0 5 
964 2 2 -0.00113645 0.000772437 0.00176786 0 0 0 -1.82663e-07 2.20498e-07 5.1218e-08 -2.6108e-11 -1.09513e-10 -1.01521e-10 -7.83694e-05 1.10804e-05 -0.00107842 0.0001 573 0 0 3 
510 2 2 -0.00193397 0.000388832 0.00239557 0 0 0 -1.12438e-07 2.39051e-08 1.60951e-07 1.71434e-11 -2.02581e-10 -3.63747e-11 -0.000269971 -0.00230125 -0.000945971 0.0001 573 0 0 5 
1005 2 2 -0.00119681 0.000961868 0.00174614 0 0 0 -1.57137e-07 2.53147e-07 6.73372e-08 1.03897e-10 -9.7e-11 -2.82027e-10 -0.000432064 -0.000378075 -0.00277852 0.0001 573 0 0 4 
470 2 2 -0.00110094 0.000427621 0.00189465 0 0 0 -1.99091e-07 3.52925e-07 7.97425e-08 -6.2515e-11 1.12118e-10 -2.04027e-10 -0.00113777 0.000110791 -3.81411e-05 0.0001 573 0 0 3 
489 2 2 -0.000976948 0.000280464 0.00184015 0 0 0 -1.94053e-07 3.40439e-07 1.53781e-07 1.61564e-10 -1.61777e-11 -9.8139e-12 -0.00144774 8.74076e-05 -0.00150515 0.0001 573 0 0 4 
473 2 2 -0.000765605 0.000340192 0.00194441 0 0 0 0.00095317 -0.00195498 0.00138502 -4.23484e-08 2.54812e-08 -3.69664e-08 45.3946 43.499 4.25368 0.0001 573 0 0 1 
485 2 2 -0.000921149 0.000116865 0.00173954 0 0 0 -1.02864e-07 3.28547e-07 2.10455e-07 8.81283e-11 -1.81941e-10 -9.46558e-11 0.00092441 -0.00143227 0.00196185 0.0001 573 0 0 5 
1023 2 2 -0.000256243 5.62743e-05 0.00187293 0 0 0 -7.18378e-08 3.68892e-07 2.80592e-07 -1.80668e-10 -5.20604e-11 -1.50749e-10 -0.000151786 0.00304584 0.00126042 0.0001 573 0 0 4 
957 2 2 -0.000275465 0.000243973 0.00193926 0 0 0 -9.76729e-08 3.615e-07 2.51106e-07 6.61297e-11 2.76287e-11 -1.20571e-10 -0.0005255 0.00394853 -0.00153426 0.0001 573 0 0 4 
1069 2 2 -0.000614279 0.000674788 0.00192486 0 0 0 -1.8257e-07 3.77113e-07 8.0177e-08 1.46107e-11 1.8822e-10 -2.21162e-11 0.000327739 -0.00065806 -0.00142394 0.0001 573 0 0 3 
1013 2 2 -0.000591644 0.00014121 0.00165512 0 0 0 -1.04628e-07 2.78184e-07 2.01769e-07 1.54668e-11 8.80083e-12 -8.39329e-11 0.00139631 -0.00290617 0.00164639 0.0001 573 0 0 4 
962 2 2 -0.000446604 0.000590828 0.00185533 0 0 0 -2.57234e-07 3.08815e-07 4.3913e-08 9.23246e-12 -7.42516e-11 -8.11231e-11 0.001175 0.000357415 -0.00019357 0.0001 573 0 0 7 
968 2 2 -0.000945521 0.00072379 0.00172277 0 0 0 -1.54599e-07 2.959e-07 2.10084e-08 -2.8387e-11 -1.51858e-10 -1.15654e-10 -0.000931892 0.000549365 -0.000546337 0.0001 573 0 0 5 
1001 2 2 -0.000521887 0.00041289 0.00180365 0 0 0 -1.83547e-07 3.00808e-07 -8.0326e-08 3.90163e-12 1.78008e-11 -3.49167e-12 0.000173189 -0.0002503 0.00112316 0.0001 573 0 0 6 
1006 2 2 -0.000377711 0.000499211 0.00169143 0 0 0 -1.04799e-07 3.7113e-07 8.45132e-08 8.09671e-11 -1.3216e-10 -1.16683e-10 -0.00029389 -0.00222508 9.02312e-05 0.0001 573 0 0 5 
1034 2 2 -0.000635048 0.000484556 0.00165513 0 0 0 -1.73759e-07 3.2903e-07 -4.49437e-08 -3.8857e-11 -3.30085e-10 -1.89802e-10 0.00111107 -9.68585e-05 -0.000283005 0.0001 573 0 0 6 
1046 2 2 -0.000406077 2.2216e-05 0.00174491 0 0 0 4.75291e-09 3.92883e-07 1.94937e-07 -4.46834e-11 -6.23953e-11 -6.44995e-11 0.000405161 -0.00406218 -0.00145834 0.0001 573 0 0 6 
1073 2 2 -0.000405813 0.000446915 0.00150045 0 0 0 -7.58072e-08 3.2041e-07 8.66061e-08 -6.5142e-12 -2.25962e-10 -3.4739e-11 -0.000270989 0.00189699 4.37515e-05 0.0001 573 0 0 5 
963 2 2 -0.000829907 0.000385371 0.00175428 0 0 0 -1.70759e-07 3.45051e-07 1.75947e-07 -2.28255e-11 2.41018e-11 2.61466e-11 -0.0005782 -0.000141695 9.25431e-05 0.0001 573 0 0 5 
1015 2 2 -0.000781926 0.000123594 0.00159611 0 0 0 -8.25565e-08 2.34661e-07 1.94049e-07 8.79204e-11 -1.36761e-10 -7.2664e-11 -0.00074574 0.000597553 -0.000957994 0.0001 573 0 0 6 
1020 2 2 -0.000696587 0.00050412 0.00184441 0 0 0 -5.50252e-08 3.24237e-07 1.25696e-08 1.91742e-11 3.0349e-11 -1.28289e-10 -0.000559764 0.00122936 -0.00125335 0.0001 573 0 0 4 
1031 2 2 -0.000399365 0.000165883 0.00160593 0 0 0 -1.26214e-07 3.84863e-07 1.62375e-07 3.53727e-11 -1.75051e-10 -6.25278e-11 0.00137649 0.00366143 -0.00116453 0.0001 573 0 0 6 
1043 2 2 -0.000253911 0.000635445 0.00182568 0 0 0 -2.37433e-07 2.76773e-07 1.69179e-08 1.47511e-10 -2.56638e-10 -1.92553e-10 -0.000706041 -7.66588e-05 -0.00023228 0.0001 573 0 0 4 
1045 2 2 -0.000665609 0.000275225 0.00178385 0 0 0 -2.0901e-07 2.95963e-07 1.46642e-07 -2.90117e-11 1.30077e-10 1.28395e-11 -0.00176805 0.00191413 -0.00119911 0.0001 573 0 0 6 
1047 2 2 -0.000710715 0.000310446 0.0015922 0 0 0 -3.62874e-08 2.39537e-07 5.0095e-08 -5.9942e-11 -2.78002e-10 4.65468e-11 -3.77329e-05 0.00146642 0.000438758 0.0001 573 0 0 4 
1053 2 2 -0.000808834 0.000575193 0.00169492 0 0 0 -1.37028e-07 3.1123e-07 7.24391e-08 4.07388e-11 -1.15744e-10 -1.00696e-10 -0.000689885 0.000532297 -0.000336322 0.0001 573 0 0 7 
1056 2 2 -0.000988107 0.000902681 0.00180142 0 0 0 -1.88788e-07 3.05159e-07 1.37286e-08 -4.05066e-11 -1.24075e-10 -1.33808e-11 0.000831336 -0.00104524 0.000683718 0.0001 573 0 0 4 
1057 2 2 -0.000513695 0.000329291 0.00162097 0 0 0 -8.22077e-08 3.94175e-07 1.68077e-07 2.55447e-11 -3.50419e-10 -4.56859e-11 -0.00179873 -0.00281639 0.000898894 0.0001 573 0 0 4 
1060 2 2 -0.000379333 0.000276356 0.00177144 0 0 0 -7.18345e-08 3.39081e-07 2.31815e-07 4.58852e-11 -6.65701e-11 -4.37259e-11 -0.000778236 -0.00385037 -0.000375266 0.0001 573 0 0 5 
991 2 2 -0.0008022 0.000690455 0.00185823 0 0 0 -1.44387e-07 4.07245e-07 1.25365e-08 -5.3676e-12 -1.01381e-11 -1.40989e-10 -0.000411485 -0.00019921 0.000918416 0.0001 573 0 0 4 
1067 2 2 -0.000435894 0.000747411 0.00197929 0 0 0 -8.9935e-07 2.98163e-07 1.07443e-07 6.937e-11 1.03713e-10 -3.36421e-11 0.00122737 -0.0100691 -0.000120352 0.0001 573 0 0 3 
967 2 2 -9.28557e-05 0.000787878 0.0018141 0 0 0 -1.07093e-07 4.51305e-07 2.93903e-08 1.44443e-11 -3.53562e-10 -3.26163e-10 -0.00202542 0.000226948 -0.00112888 0.0001 573 0 0 4 
956 2 2 -0.000245745 0.000797447 0.00194268 0 0 0 -8.22383e-07 1.09254e-07 2.71095e-07 6.75541e-11 -3.106e-10 -2.34183e-10 0.00580267 0.0381877 0.0349774 0.0001 573 0 0 4 
1039 2 2 -0.00096116 0.000550983 0.00182224 0 0 0 -1.70241e-07 3.33496e-07 6.90915e-08 -3.79516e-11 2.98367e-11 -1.92548e-10 0.000375565 -0.000629321 0.000151387 0.0001 573 0 0 4 
1021 2 2 -0.000316958 0.000437725 0.00187179 0 0 0 -1.55235e-07 4.30866e-07 1.31729e-07 2.53357e-10 5.00709e-11 -1.46363e-10 -0.000983963 0.00212584 -0.00170606 0.0001 573 0 0 3 
990 2 2 -0.0008387 0.000873118 0.00193104 0 0 0 -1.61486e-07 3.75748e-07 2.39828e-08 1.55648e-11 7.21343e-11 -1.38654e-10 0.000785489 -0.00115057 -0.00105291 0.0001 573 0 0 3 
977 2 2 -0.000275261 0.000983673 0.00200938 0 0 0 -1.85654e-06 -2.37081e-07 6.5443e-07 2.22527e-10 -2.91016e-10 -2.55542e-10 -0.00429937 -0.0171313 -0.0275261 0.0001 573 0 0 3 
370 2 2 -0.000519078 0.000153536 0.00184484 0 0 0 -1.63532e-07 3.48668e-07 6.11013e-08 -5.16404e-11 6.45962e-11 -1.36406e-11 0.000707333 0.000138347 0.00126587 0.0001 573 0 0 4 
564 2 2 -0.000556549 0.000486945 0.00198617 0 0 0 -8.83957e-08 1.02953e-07 2.47464e-08 -3.41596e-11 7.55561e-11 -3.45417e-12 0.00178608 0.00205664 0.000469476 0.0001 573 0 0 3 
512 2 2 -0.000464266 0.000305765 0.00196241 0 0 0 -1.38179e-07 4.04869e-07 -2.39454e-08 1.64542e-10 3.30331e-10 -5.464e-11 -0.00147366 0.000741227 -0.00104366 0.0001 573 0 0 3 
520 2 2 -0.000764504 0.000120876 0.00186382 0 0 0 -1.43014e-07 3.12996e-07 2.48546e-07 -1.58379e-11 8.62436e-11 -2.43861e-10 0.00233324 0.00105485 0.00042426 0.0001 573 0 0 3 
174 1 1 -0.00250187 0.00135101 0.00217908 0 0 0 -7.39893e-08 8.50344e-08 -5.61788e-08 1.82449e-10 -8.44891e-09 -9.18264e-10 -5.80731e-06 0.00014121 -7.176e-05 0.0005 573 0 0 6 
975 2 2 -0.00223824 0.00129343 0.00150149 0 0 0 -8.47253e-08 4.10962e-08 -1.15038e-08 -1.24407e-11 -1.18193e-10 6.90987e-11 0.000266857 -0.000514811 -0.000347359 0.0001 573 0 0 4 
524 2 2 -0.00204959 0.00160853 0.00164247 0 -1 0 3.1126e-08 1.99763e-07 -2.18563e-08 6.323e-11 -3.26276e-11 1.86346e-11 -0.00244195 0.00108942 8.48913e-05 0.0001 573 0 0 4 