ITEM: TIMESTEP
1099989
ITEM: NUMBER OF ATOMS
200
ITEM: BOX BOUNDS ff pp ff
-0.003 0.003
-0.002 0.002
0 0.00715299
ITEM: ATOMS id type type x y z ix iy iz vx vy vz fx fy fz omegax omegay omegaz radius f_Temp[0] f_heatSource[0] f_heatFlux[0] c_coord[0] 
167 1 1 -0.00251274 -0.00169969 0.000476077 0 1 0 3.91318e-07 -2.48413e-06 3.60093e-07 -3.32889e-06 -5.83845e-06 3.54139e-07 0.00389592 -0.000783564 -0.00219641 0.0005 573 0 0 4 
13 1 1 -0.000910463 -0.00129105 0.000493954 0 0 0 4.88491e-07 -7.75142e-06 2.30592e-06 -1.53419e-05 -1.9049e-05 -4.57421e-06 0.0142868 -0.00127943 0.000679212 0.0005 573 0 0 3 
11 1 1 -5.00771e-05 -0.00178843 0.000495247 0 0 0 1.02381e-06 -6.01272e-06 7.99826e-07 -1.24067e-05 -1.59699e-05 1.41247e-06 0.00718049 6.18045e-05 0.00234497 0.0005 573 0 0 5 
6 1 1 0.000737426 -0.00118714 0.000486172 0 0 0 4.77036e-07 -4.42866e-06 1.97374e-06 -9.95228e-06 -1.00429e-05 3.28958e-06 0.00177689 -9.0392e-05 0.000178884 0.0005 573 0 0 6 
10 1 1 0.00160854 -0.00143267 0.000908292 0 0 0 1.39794e-06 -5.73574e-06 2.59424e-06 -1.15387e-05 -1.42546e-05 1.71946e-06 -0.00561344 0.00507709 -0.00226242 0.0005 573 0 0 6 
46 1 1 0.00250344 -0.00146383 0.000478273 0 0 0 1.81876e-07 -3.07407e-06 -1.34259e-07 -2.39736e-06 -7.34751e-06 -7.79217e-07 0.00508789 2.55372e-05 0.00585284 0.0005 573 0 0 3 
1 1 1 -0.00250441 -0.00108356 0.00124419 0 0 0 3.77881e-07 -4.32512e-06 -2.9095e-07 -5.31682e-06 -9.18837e-06 3.2297e-06 0.000746749 0.00169535 -0.00207656 0.0005 573 0 0 5 
2 1 1 -0.00166079 -0.0017319 0.00145092 0 0 0 5.11613e-07 -1.14164e-05 -4.83225e-10 -1.82947e-05 -2.71002e-05 -8.76874e-06 0.00217432 -0.000334356 -0.00205498 0.0005 573 0 0 5 
35 1 1 -0.000325405 -0.00126596 0.00129369 0 0 0 -2.11463e-07 -1.1679e-05 2.28235e-06 -2.92304e-05 -2.61351e-05 2.06248e-06 -0.00267411 -0.000916486 0.00145402 0.0005 573 0 0 8 
4 1 1 0.000575967 -0.00166287 0.00132955 0 0 0 -1.62054e-07 -1.01524e-05 2.77384e-06 -2.43315e-05 -2.3491e-05 2.32655e-07 0.00461385 -2.11574e-05 0.0021046 0.0005 573 0 0 6 
20 1 1 0.00250491 -0.00179118 0.00139486 0 0 0 2.67248e-08 -3.60143e-06 2.90844e-07 -2.78308e-06 -8.41752e-06 -1.69693e-06 -0.00415216 -0.00267999 0.00345981 0.0005 573 0 0 4 
22 1 1 -0.00250746 -0.00160609 0.0020851 0 0 0 -2.27868e-07 -5.58682e-06 4.18652e-07 -4.68507e-06 -1.4254e-05 4.76e-06 0.00270806 -0.00296097 -0.00828781 0.0005 573 0 0 4 
49 1 1 -0.00251663 -0.00113434 0.00295165 0 0 0 -1.20574e-06 -7.13182e-06 7.31487e-07 -1.89082e-06 -9.49393e-06 9.71992e-06 -0.00134136 -0.0038566 -0.00543972 0.0005 573 0 0 7 
8 1 1 -0.00167518 -0.00182039 0.00257296 0 0 0 -1.54114e-06 -1.03423e-05 2.64173e-06 -1.71184e-05 -2.23821e-05 5.3069e-06 -0.004271 -0.000690813 -0.000256464 0.0005 573 0 0 7 
24 1 1 -0.000949968 -0.00139408 0.00205004 0 0 0 -1.24157e-06 -1.24612e-05 2.04133e-06 -2.75248e-05 -2.41052e-05 4.92473e-06 -0.00112637 -0.00312276 0.00181756 0.0005 573 0 0 7 
28 1 1 -7.94042e-05 -0.00142791 0.00252935 0 0 0 -3.1371e-06 -1.25376e-05 4.29714e-06 -2.87907e-05 -2.32779e-05 1.49263e-06 -0.00572633 -0.00491762 -0.00201373 0.0005 573 0 0 8 
5 1 1 -0.00092734 -0.00138039 0.00304294 0 0 0 -5.24254e-06 -8.56389e-06 6.73025e-06 -2.31852e-05 -1.03778e-05 1.8632e-05 -0.00386288 -0.0024135 -0.00183202 0.0005 573 0 0 10 
55 1 1 0.000917858 -0.00113606 0.00209277 0 0 0 -1.31335e-06 -1.33693e-05 2.89961e-06 -2.23317e-05 -2.77277e-05 -4.72225e-06 -0.00270029 -0.00103363 -0.00297258 0.0005 573 0 0 6 
40 1 1 0.00166059 -0.00167821 0.00245139 0 0 0 -2.48212e-06 -9.59207e-06 5.08564e-06 -1.60526e-05 -1.77667e-05 -5.02868e-06 -0.00716153 0.000736891 0.0033478 0.0005 573 0 0 5 
50 1 1 0.00251377 -0.00121936 0.00228675 0 0 0 -1.21625e-06 -3.98064e-06 1.31486e-06 -6.92422e-06 -8.43426e-06 -3.09372e-06 -0.00331302 0.000867868 0.00517194 0.0005 573 0 0 5 
44 1 1 -0.0017876 -0.00143776 0.00353649 0 0 0 -2.92683e-06 -6.55326e-06 1.03275e-05 -1.12004e-05 1.4652e-05 2.94263e-05 -0.00272013 -0.00968403 0.00816755 0.0005 573 0 0 6 
31 1 1 -0.000946391 -0.00171469 0.00397696 0 0 0 -8.63397e-06 9.16664e-06 2.01577e-05 -5.54931e-06 1.82283e-05 3.46075e-05 -0.0324443 0.0105879 -0.0319469 0.0005 573 0 0 7 
176 1 1 -9.12471e-05 -0.00168079 0.00348109 0 1 0 -6.7202e-06 -1.21631e-05 5.30859e-06 -1.17479e-05 -5.84419e-06 2.22124e-06 0.00592532 0.00414374 0.00741716 0.0005 573 0 0 8 
42 1 1 0.000685229 -0.0011878 0.00310501 0 0 0 -6.5117e-06 -1.01728e-05 9.83166e-06 -2.52502e-05 -1.4126e-05 -3.5492e-06 0.00901174 -0.00716888 0.00345887 0.0005 573 0 0 5 
37 1 1 0.00162255 -0.00115763 0.00345936 0 0 0 0.0149245 -0.00743802 -0.00582178 0 0 -1.76696e-05 -384.816 374.055 -187.946 0.0005 573 0 0 0 
47 1 1 0.00251582 -0.00174545 0.00314039 0 0 0 -1.15683e-06 -2.87673e-06 2.42391e-06 -5.5625e-06 -5.21315e-06 -2.13096e-07 -0.00364108 0.00440182 0.00389943 0.0005 573 0 0 4 
87 1 1 0.00250976 -0.00129622 0.00401827 0 0 0 -1.64627e-06 -3.70397e-07 8.46937e-07 -2.08023e-06 -2.33288e-06 -1.17572e-06 -0.00110985 -0.000593493 0.000492328 0.0005 573 0 0 3 
57 1 1 -0.00250982 -0.00100355 0.00485959 0 0 0 -3.03219e-06 -3.95789e-06 6.80295e-06 1.60667e-05 2.67754e-05 -3.25471e-08 -0.0250148 -0.0254652 0.0112967 0.0005 573 0 0 5 
179 1 1 -0.00251032 -0.00170733 0.00415606 0 1 0 -1.81677e-06 -7.23442e-06 4.53525e-06 -1.48714e-05 7.38701e-06 2.96876e-06 0.0192827 -0.00595581 -0.0129907 0.0005 573 0 0 5 
48 1 1 -0.00212262 -0.00189889 0.00503247 0 0 0 2.34965e-06 -3.7387e-06 9.03214e-06 -1.23777e-05 4.55085e-05 3.59338e-06 -0.022222 0.0195765 0.0221037 0.0005 573 0 0 9 
26 1 1 -0.00162053 -0.00123328 0.00450308 0 0 0 5.03275e-06 2.58484e-05 5.03091e-05 -3.46269e-05 1.7471e-05 -4.53152e-05 0.166717 -0.0446487 -0.0514806 0.0005 573 0 0 6 
153 1 1 -0.00109232 -0.00192362 0.00499238 0 1 0 -1.24782e-05 -9.06279e-06 -3.85397e-07 -2.46391e-05 -2.68718e-05 -1.79365e-06 -0.00676536 -0.00689602 0.0843927 0.0005 573 0 0 3 
7 1 1 -0.000268185 -0.00102704 0.0041903 0 0 0 1.12402e-05 2.18665e-06 -4.0275e-06 -2.24334e-05 2.16871e-06 2.58945e-05 -0.0447916 0.0160557 -0.0503066 0.0005 573 0 0 8 
34 1 1 5.12551e-06 -0.00154687 0.00495604 0 0 0 9.36897e-06 1.45356e-05 2.07578e-06 1.68727e-05 1.97021e-05 -2.36956e-06 0.00075748 0.0101528 0.0146847 0.0005 573 0 0 7 
29 1 1 0.000663679 -0.00136338 0.00421828 0 0 0 -2.5519e-07 -8.34815e-06 -5.90381e-07 8.34414e-06 8.37453e-06 -9.20011e-06 0.00856728 -0.00904706 0.0128939 0.0005 573 0 0 6 
9 1 1 0.00162689 -0.00130893 0.00444857 0 0 0 -3.48894e-06 -2.60849e-06 3.31144e-06 2.08641e-06 -2.40317e-06 -3.41078e-06 0.00858946 0.00505637 0.00136305 0.0005 573 0 0 6 
151 1 1 0.00228706 -0.00198067 0.00474639 0 1 0 -4.32086e-06 -1.683e-06 1.00086e-06 -5.23231e-06 -2.59669e-06 -4.11223e-06 -0.00254889 -0.00196556 -0.00177851 0.0005 573 0 0 7 
99 1 1 0.00251951 -0.001111 0.005095 0 0 0 -3.53374e-06 -1.85357e-08 1.05467e-06 -6.38183e-06 -5.31405e-07 -8.07662e-07 -0.000359226 -0.000497212 -0.000747668 0.0005 573 0 0 6 
45 1 1 -0.00251049 -0.00137419 0.00578328 0 0 0 1.71051e-05 4.61981e-06 3.24742e-06 1.14113e-05 6.72939e-06 2.6938e-05 0.00548786 0.0162126 -0.0224236 0.0005 573 0 0 5 
33 1 1 -0.00162329 -0.00178998 0.00586521 0 0 0 1.0087e-05 -1.70988e-06 7.30835e-08 1.29452e-05 4.07173e-08 -1.5474e-05 -0.0161131 -0.000500579 -0.0294511 0.0005 573 0 0 6 
25 1 1 -0.000760975 -0.00132259 0.00573051 0 0 0 9.32876e-06 1.65689e-05 -2.74361e-05 -8.67713e-06 2.96486e-05 -6.82913e-06 -0.089934 0.00341515 0.0668526 0.0005 573 0 0 3 
36 1 1 -2.28452e-05 -0.00197598 0.00582897 0 0 0 9.12285e-06 2.6048e-05 2.58481e-06 1.39319e-06 -3.0869e-06 -1.68703e-06 -0.00284681 -0.0138615 -0.0572295 0.0005 573 0 0 8 
14 1 1 0.000953351 -0.00131968 0.0051697 0 0 0 -1.50145e-06 7.14365e-06 2.05584e-06 6.41866e-06 2.00961e-05 -4.29422e-06 -0.0234147 -0.0074861 -0.00550412 0.0005 573 0 0 7 
15 1 1 0.000220158 -0.00103493 0.00577185 0 0 0 -4.22487e-06 1.17677e-05 5.22146e-06 8.36188e-06 1.79402e-05 4.31199e-06 0.0107045 0.0127885 0.0455034 0.0005 573 0 0 7 
27 1 1 0.00190285 -0.00114157 0.00586055 0 0 0 -7.49638e-06 1.33665e-06 2.52184e-06 -1.26917e-05 1.44156e-06 -7.22266e-08 0.00384617 0.00287325 0.000464233 0.0005 573 0 0 7 
172 1 1 0.00251245 -0.00189565 0.00570286 0 1 0 -2.98634e-06 -3.24332e-07 6.27124e-07 -4.18754e-06 -1.22942e-06 -1.62792e-06 0.000190343 0.0014733 0.00199702 0.0005 573 0 0 6 
39 1 1 -0.0025018 -0.00188346 0.00666482 0 0 0 -3.86731e-06 6.14415e-06 -7.19535e-06 -3.32066e-07 9.07013e-06 -4.61048e-07 -0.0178973 0.0117039 -0.0129695 0.0005 573 0 0 4 
32 1 1 -0.00150515 -0.00124523 0.00666963 0 0 0 1.21911e-05 1.93415e-05 -3.06558e-05 6.20714e-05 3.46181e-05 -0.00019011 -0.0669243 -0.0393018 -0.0135477 0.0005 573 0 0 3 
94 1 1 -0.000738289 -0.00187423 0.00663946 0 0 0 7.25863e-06 3.36326e-05 1.34436e-05 -5.29931e-05 -8.45143e-05 4.51654e-05 0.0507374 -0.046048 -0.0119457 0.0005 573 0 0 3 
12 1 1 0.000291495 -0.00145864 0.00666206 0 0 0 -8.46534e-07 8.08441e-06 1.84194e-06 1.50003e-06 7.16394e-06 6.78625e-06 -0.00174827 -0.00702762 0.0168016 0.0005 573 0 0 4 
18 1 1 0.00162544 -0.00163594 0.00666612 0 0 0 -1.75545e-06 -1.06669e-06 1.27043e-06 -1.44331e-06 -9.27062e-07 6.92698e-07 -0.00108148 0.00283581 0.00376866 0.0005 573 0 0 3 
38 1 1 0.0025042 -0.00108792 0.00665342 0 0 0 -2.46177e-06 -5.34536e-07 -2.29148e-07 -5.78456e-06 -8.91217e-07 -2.438e-06 -0.0011001 0.00117748 0.00213662 0.0005 573 0 0 4 
97 1 1 -0.00184779 -0.000970372 0.000501081 0 0 0 1.16509e-06 -6.72164e-06 -5.66384e-07 -9.33028e-06 -1.34788e-05 -7.60973e-06 -0.0123481 -0.00543611 -0.00198022 0.0005 573 0 0 4 
149 1 1 -0.0015732 -2.11414e-05 0.00048642 0 0 0 1.65574e-07 -6.26093e-06 -9.00261e-07 -1.19995e-05 -1.61702e-05 -5.2605e-07 0.0112718 -7.09631e-06 0.00190376 0.0005 573 0 0 4 
78 1 1 7.96828e-05 -0.000455016 0.000488037 0 0 0 -7.03173e-07 -5.75067e-06 9.74829e-07 -1.46237e-05 -1.39587e-05 -1.09676e-06 0.0076134 -0.00502161 0.00266621 0.0005 573 0 0 4 
56 1 1 0.00148436 -0.000553577 0.000490723 0 0 0 9.38984e-07 -3.93046e-06 7.35136e-07 -4.39225e-06 -1.03776e-05 -3.94006e-07 0.00333055 0.00289756 0.00144721 0.0005 573 0 0 6 
92 1 1 0.00247583 -0.000475248 0.000474445 0 0 0 -1.07527e-07 -2.10889e-06 9.11124e-07 -2.96001e-06 -5.25878e-06 1.21594e-06 0.00085635 -0.000826265 -0.00346432 0.0005 573 0 0 4 
63 1 1 -0.00217575 -0.000154093 0.00127279 0 0 0 -6.74401e-07 -8.19331e-06 -1.49013e-06 -1.4652e-05 -1.70875e-05 8.44227e-07 0.00122985 0.00380484 -0.00201723 0.0005 573 0 0 7 
59 1 1 -0.00140755 -0.000774297 0.00138447 0 0 0 2.45825e-07 -1.15869e-05 -9.40219e-07 -2.62129e-05 -2.88563e-05 -1.22276e-05 -0.00427661 -0.00294392 0.00017127 0.0005 573 0 0 3 
89 1 1 -0.000539218 -0.000309273 0.00125619 0 0 0 -1.00153e-06 -1.13881e-05 6.57409e-08 -3.18042e-05 -2.84368e-05 -4.15913e-06 0.00286232 0.000474222 0.00105982 0.0005 573 0 0 7 
83 1 1 0.000431468 -0.000633024 0.00139264 0 0 0 -3.43967e-07 -1.18899e-05 1.43261e-06 -2.50648e-05 -2.93644e-05 -4.17798e-06 0.00239711 0.00266186 -0.00231325 0.0005 573 0 0 5 
76 1 1 0.00154023 -0.000633798 0.00148214 0 0 0 3.52675e-07 -7.45024e-06 1.28833e-06 -9.14232e-06 -1.68705e-05 -2.99843e-06 0.00470191 -0.00482412 0.00463589 0.0005 573 0 0 6 
64 1 1 0.00250861 -0.000810288 0.00139034 0 0 0 -1.04774e-06 -3.11839e-06 1.01057e-06 -5.26646e-06 -7.17914e-06 -7.3464e-07 0.00406268 0.000287637 0.00281876 0.0005 573 0 0 5 
80 1 1 -0.00246466 -0.000607336 0.00211328 0 0 0 -7.19279e-07 -7.27329e-06 -1.30594e-06 -1.09043e-05 -1.6467e-05 3.22338e-06 -0.00154186 -0.00098374 0.00438525 0.0005 573 0 0 5 
100 1 1 -0.00163601 -0.00083578 0.00264581 0 0 0 -1.81768e-06 -1.04354e-05 2.30968e-06 -1.91975e-05 -1.97346e-05 1.93268e-05 0.00202516 -0.00142152 -0.000292881 0.0005 573 0 0 5 
142 1 1 -0.00164854 -3.56515e-05 0.00208577 0 0 0 -2.05646e-06 -1.01884e-05 2.32094e-07 -2.15641e-05 -2.15315e-05 1.24316e-05 -0.00113766 -0.00739392 -0.000829091 0.0005 573 0 0 8 
98 1 1 -0.000771558 -0.00044294 0.00220408 0 0 0 -2.10769e-06 -1.25334e-05 1.26002e-06 -2.63296e-05 -2.52182e-05 3.70885e-06 -0.00128123 -0.000668717 -0.0026827 0.0005 573 0 0 7 
60 1 1 0.000191624 -0.000514601 0.00234481 0 0 0 -6.75036e-07 -1.38675e-05 2.17742e-06 -1.94401e-05 -2.46063e-05 -5.23048e-06 0.00209265 -0.00218233 0.000474311 0.0005 573 0 0 7 
95 1 1 0.000996097 -5.47648e-05 0.00206103 0 0 0 3.45753e-07 -1.18239e-05 1.79858e-06 -1.38433e-05 -2.52728e-05 -5.55259e-06 0.000779117 0.00525847 0.000132751 0.0005 573 0 0 6 
51 1 1 0.00171137 -0.000674601 0.00246241 0 0 0 -2.49752e-06 -1.27332e-05 4.02941e-06 -1.63086e-05 -2.30113e-05 -4.81674e-06 0.0110878 0.000733804 0.0101849 0.0005 573 0 0 5 
82 1 1 0.0025015 -0.000174415 0.00213519 0 0 0 -1.15255e-06 -4.2543e-06 3.31513e-06 -6.55008e-06 -9.15269e-06 1.942e-06 0.000466276 0.00400254 0.00172758 0.0005 573 0 0 4 
125 1 1 -0.00251211 -0.000160701 0.00306569 0 0 0 3.01233e-06 -5.6609e-06 -4.8864e-06 7.83307e-06 -1.12075e-05 8.42419e-06 0.000320992 0.0163331 -0.00718447 0.0005 573 0 0 4 
84 1 1 -0.00251618 -0.00077461 0.00387509 0 0 0 -1.48702e-06 -3.14303e-06 -3.9301e-06 8.22903e-06 -3.50148e-06 2.03562e-05 -0.0268922 0.00902622 0.0012845 0.0005 573 0 0 3 
43 1 1 -0.00110836 -0.000765697 0.00378371 0 0 0 -2.23637e-06 5.54625e-07 1.91012e-05 2.63005e-05 2.46038e-05 3.09361e-05 0.00510563 0.0324834 0.0181184 0.0005 573 0 0 8 
121 1 1 -0.00181737 -0.000119603 0.00374591 0 0 0 -1.99442e-06 -8.12192e-06 6.56886e-06 2.25812e-05 2.59862e-05 4.0233e-05 -0.000184199 -0.0526127 -0.000970526 0.0005 573 0 0 7 
90 1 1 -0.000413481 -0.000547475 0.00311888 0 0 0 -1.67116e-06 -9.08186e-06 1.65612e-06 -1.00642e-05 -1.87966e-05 -4.195e-07 -0.0111619 0.00339252 -0.0146308 0.0005 573 0 0 7 
72 1 1 0.000331111 -0.000407147 0.00373526 0 0 0 4.98264e-06 -1.0566e-05 -1.71567e-06 -1.60567e-05 -2.23753e-07 9.88156e-06 0.0394446 -0.00958856 0.0272298 0.0005 573 0 0 6 
65 1 1 0.00108593 -0.000294702 0.00312049 0 0 0 -5.19735e-08 -8.48011e-06 4.82879e-06 -1.28186e-05 -1.55788e-05 -5.75559e-06 -0.0234188 0.0071638 -0.0140239 0.0005 573 0 0 6 
75 1 1 0.00188287 -0.000217215 0.00368202 0 0 0 -3.69099e-08 -4.27713e-06 3.51189e-06 -5.26323e-06 -8.69978e-06 -3.6553e-06 -0.00289243 -0.00505882 0.00597611 0.0005 573 0 0 6 
91 1 1 0.00250825 -0.00076845 0.00316603 0 0 0 1.78824e-07 -2.28679e-06 2.70435e-06 -3.18599e-06 -4.91598e-06 -1.67625e-07 0.00347457 0.00599143 -0.0010595 0.0005 573 0 0 4 
71 1 1 -0.00250882 -2.00553e-05 0.00493069 0 0 0 1.13703e-05 -1.53407e-05 -4.39591e-06 -1.2276e-05 0.000122191 6.47133e-05 0.0414573 -0.0363526 -0.0441012 0.0005 573 0 0 4 
96 1 1 -0.00135096 -0.000295275 0.00461914 0 0 0 5.17036e-05 7.11985e-05 4.31756e-05 -0.000303282 4.38764e-05 3.08454e-06 -0.171415 0.13288 -0.0659928 0.0005 573 0 0 6 
109 1 1 -0.000411222 -7.58188e-05 0.0043904 0 0 0 3.42212e-05 2.31242e-05 -7.9026e-06 -0.000143907 4.95749e-05 0.000101754 0.0267219 0.0076511 0.0543457 0.0005 573 0 0 8 
41 1 1 0.000287569 -0.000594036 0.00488716 0 0 0 -1.67559e-06 9.35586e-06 7.09445e-07 -3.53732e-06 2.31757e-05 5.59457e-07 -0.00886355 -0.0439876 0.00304003 0.0005 573 0 0 6 
73 1 1 0.00110289 -0.000482531 0.00432954 0 0 0 -4.76706e-06 -4.05739e-06 5.85631e-06 2.16286e-06 -3.77082e-06 -5.83704e-07 -0.0119438 -0.00324778 0.00187774 0.0005 573 0 0 7 
68 1 1 0.00173911 -0.00052292 0.00508462 0 0 0 -7.19826e-06 1.33987e-06 4.0309e-06 -6.24312e-06 2.55164e-06 2.69492e-06 -0.00671047 0.00671216 -0.00108787 0.0005 573 0 0 6 
93 1 1 0.00250559 -0.000393643 0.00442677 0 0 0 -1.55638e-06 -9.55588e-07 2.24043e-06 -4.1046e-06 -2.21385e-06 -7.24597e-07 0.00219506 0.000990488 0.000406548 0.0005 573 0 0 5 
86 1 1 -0.0025034 -0.000387249 0.00583206 0 0 0 3.43644e-05 2.64647e-05 -2.90008e-05 -0.000104133 6.51479e-05 0.000169415 -0.101512 0.102046 0.0996853 0.0005 573 0 0 5 
77 1 1 -0.00161719 -0.000874029 0.00546383 0 0 0 0.0282438 0.00556324 0.00799223 -0.00116183 -0.00369563 -0.000357231 20.3381 55.5707 -83.7123 0.0005 573 0 0 1 
85 1 1 -0.000639858 -0.000446999 0.00528584 0 0 0 3.65046e-05 2.27217e-05 -2.89967e-05 -0.000185615 9.13152e-05 0.00013884 0.0574238 -0.123357 -0.0420757 0.0005 573 0 0 5 
108 1 1 -0.000102511 -0.000165059 0.00606444 0 0 0 -3.3476e-05 1.76905e-05 7.93684e-06 8.58197e-05 -4.80984e-06 -4.70554e-06 -0.0403123 -0.0086612 0.0122175 0.0005 573 0 0 8 
81 1 1 0.00109571 -0.000592807 0.00582401 0 0 0 -1.49691e-05 1.03663e-05 1.95491e-06 -2.68854e-06 1.58825e-05 3.51681e-06 0.00240298 -0.0198265 -0.00689116 0.0005 573 0 0 8 
52 1 1 0.00251004 -0.000365001 0.00572672 0 0 0 -2.58072e-06 2.03991e-07 1.26928e-06 -5.98347e-06 1.3571e-06 -2.14925e-07 0.000151331 0.00151274 -0.00140095 0.0005 573 0 0 5 
3 1 1 -0.00244997 -0.000900029 0.00666624 0 0 0 6.75688e-05 2.73493e-05 -9.18047e-06 -6.08422e-05 1.35512e-05 4.39111e-05 0.0477854 -0.118429 -0.129314 0.0005 573 0 0 2 
70 1 1 -0.00168188 -0.000321655 0.00638278 0 0 0 1.54074e-05 0.000117093 -2.50141e-05 -0.00021256 0.000221074 -0.000133768 0.360316 -0.0870125 0.0849143 0.0005 573 0 0 6 
54 1 1 -0.000528827 -0.000888221 0.00661475 0 0 0 -0.0150803 0.0165927 0.0567395 0 0 -1.76696e-05 -13.7774 150.727 -14.2539 0.0005 573 0 0 0 
69 1 1 0.000596797 -0.000511645 0.00666818 0 0 0 -1.68453e-05 1.35227e-05 1.47738e-06 -4.18057e-06 -3.12725e-06 1.36837e-05 0.0223406 0.0338807 -0.0156522 0.0005 573 0 0 3 
58 1 1 0.0016295 -0.000616205 0.00666037 0 0 0 -5.97375e-06 5.37096e-07 3.28244e-06 -7.9383e-06 -9.04281e-08 3.65482e-06 0.00210006 0.0148074 -0.00666189 0.0005 573 0 0 4 
66 1 1 0.00250446 -9.10004e-05 0.00666825 0 0 0 -9.53057e-07 5.1596e-07 2.28795e-07 -2.58724e-06 2.12228e-06 -8.88423e-07 0.000137623 0.000587316 -0.00301531 0.0005 573 0 0 4 
126 1 1 -0.00251057 0.00030308 0.000479336 0 0 0 -2.32025e-07 -3.34151e-06 -2.3845e-07 -4.21758e-06 -8.67806e-06 -1.56469e-06 0.00420397 -0.000888286 -0.00681234 0.0005 573 0 0 4 
147 1 1 -0.00129307 0.000939785 0.000478976 0 0 0 -6.31685e-07 -6.55619e-06 7.69171e-07 -8.49033e-06 -1.39283e-05 4.52709e-07 0.0107582 -0.00273699 0.00699093 0.0005 573 0 0 3 
127 1 1 -0.00054587 0.000303278 0.000489953 0 0 0 -7.46924e-10 -5.31901e-06 5.19489e-09 -1.96132e-05 -1.93929e-05 -3.53201e-06 0.00380593 -0.00341299 -0.00389125 0.0005 573 0 0 4 
145 1 1 0.000461641 0.000677881 0.000490724 0 0 0 3.94157e-07 -6.46995e-06 -6.83444e-07 -1.41483e-05 -2.08392e-05 -2.32585e-06 0.00904441 -0.00263737 -0.00432095 0.0005 573 0 0 3 
103 1 1 0.00176791 0.000376102 0.000488552 0 0 0 7.39605e-07 -4.10754e-06 8.86e-07 -4.79855e-06 -1.00705e-05 -1.19983e-09 0.00432771 0.00324085 0.000266607 0.0005 573 0 0 5 
129 1 1 0.00252014 0.000994874 0.000486816 0 0 0 -2.39508e-07 -2.50516e-06 4.95536e-07 -4.36107e-06 -5.75331e-06 1.21751e-06 0.00364058 -3.93833e-05 0.00391149 0.0005 573 0 0 4 
131 1 1 -0.00251137 0.000781301 0.00134547 0 0 0 3.31834e-07 -5.36865e-06 3.50391e-07 -5.53821e-06 -1.29259e-05 -3.12737e-06 0.00145528 -0.00207955 -0.00784007 0.0005 573 0 0 4 
79 1 1 -0.0012356 0.000394531 0.00130807 0 0 0 3.78187e-09 -1.17194e-05 4.235e-07 -2.07204e-05 -2.70869e-05 3.4325e-06 -0.000283425 0.00077607 -0.0016414 0.0005 573 0 0 6 
67 1 1 0.000149737 0.000298221 0.0016297 0 0 0 -8.7423e-08 -1.32678e-05 1.05442e-06 -2.7979e-05 -3.13647e-05 -5.95336e-06 0.00869992 0.00718518 0.00161102 0.0005 573 0 0 3 
134 1 1 0.000891674 0.000911017 0.00186882 0 0 0 -8.33961e-07 -1.18811e-05 3.10119e-06 -2.09193e-05 -2.45089e-05 -4.00287e-06 0.00372372 -0.0031424 0.00229824 0.0005 573 0 0 7 
118 1 1 0.00173034 0.000454882 0.00166585 0 0 0 -5.68814e-07 -7.91001e-06 1.5863e-06 -1.33579e-05 -1.66726e-05 -1.65412e-06 0.00657862 0.00205663 0.00414648 0.0005 573 0 0 6 
74 1 1 0.00101359 0.000103105 0.00107613 0 0 0 -3.50392e-07 -9.30424e-06 7.87599e-07 -1.46255e-05 -2.53437e-05 -4.81524e-06 -6.39509e-05 -0.00366675 0.00549346 0.0005 573 0 0 7 
135 1 1 0.00251531 0.000245458 0.00113387 0 0 0 3.95913e-07 -2.66545e-06 8.70431e-08 -3.53379e-06 -6.17469e-06 3.38435e-07 -0.00174276 -0.000520568 0.0040903 0.0005 573 0 0 4 
111 1 1 -0.00251644 0.000374529 0.0022464 0 0 0 -1.29496e-06 -5.29458e-06 -2.32977e-06 -5.93071e-06 -9.1004e-06 7.45528e-07 0.000731242 0.00371175 -0.00721491 0.0005 573 0 0 5 
185 1 1 -0.00163809 0.000906507 0.00237118 0 0 0 -2.13058e-06 -1.0102e-05 -2.12507e-06 -1.86548e-05 -1.86271e-05 7.34466e-06 -0.00151795 -0.00695322 -0.00662894 0.0005 573 0 0 5 
88 1 1 -0.00122216 -3.63405e-06 0.00297337 0 0 0 1.67089e-06 -1.07372e-05 4.94893e-06 -2.60036e-06 -1.57752e-05 1.35707e-05 0.000643746 0.0214716 0.00711475 0.0005 573 0 0 6 
139 1 1 -0.000557194 0.00051607 0.00230107 0 0 0 -1.00195e-06 -1.43978e-05 1.84894e-06 -2.94421e-05 -2.44996e-05 -5.36314e-06 0.000122545 -0.00575965 5.28049e-05 0.0005 573 0 0 5 
113 1 1 0.000412718 0.000331225 0.00278101 0 0 0 -4.1025e-07 -1.2152e-05 2.23918e-06 -1.68111e-05 -2.25664e-05 -3.44883e-06 0.000548852 -0.000370632 0.00373205 0.0005 573 0 0 5 
136 1 1 0.00162579 0.000390632 0.00267435 0 0 0 -1.39641e-07 -1.11354e-05 2.38306e-06 -8.6696e-06 -2.03907e-05 -7.44081e-06 0.010812 -0.00501578 0.0104728 0.0005 573 0 0 4 
119 1 1 0.00251273 0.000811386 0.00213834 0 0 0 -6.99882e-07 -4.11717e-06 2.00167e-06 -6.76812e-06 -8.3875e-06 4.39327e-07 -0.00222977 0.00257566 0.00485682 0.0005 573 0 0 6 
117 1 1 0.00251369 0.000204456 0.00304439 0 0 0 -2.87545e-07 -3.31823e-06 2.62285e-06 -2.94119e-06 -6.11893e-06 -1.79497e-06 -0.00361668 0.00191322 0.00449622 0.0005 573 0 0 6 
148 1 1 -0.00252657 0.000443408 0.00407147 0 0 0 1.1389e-05 -1.04384e-05 3.05353e-06 -3.37725e-05 4.72115e-05 1.85695e-05 0.022982 0.0171865 -0.0232931 0.0005 573 0 0 5 
137 1 1 -0.00205811 0.000705693 0.00324143 0 0 0 2.71201e-06 -8.57478e-06 -1.87248e-06 -8.70018e-06 -5.23069e-06 1.97216e-05 0.00520428 0.0161416 0.00565576 0.0005 573 0 0 6 
143 1 1 -0.00110641 0.000488747 0.00396277 0 0 0 8.87933e-06 7.78148e-06 1.01514e-05 -1.51488e-05 4.39429e-05 -3.84336e-05 -0.0560077 0.021506 -0.0195398 0.0005 573 0 0 7 
102 1 1 -0.000963081 0.000930241 0.00310189 0 0 0 -2.47687e-06 -1.36043e-05 1.53778e-06 -3.67491e-06 -2.41394e-05 -9.55463e-06 0.00206694 0.00323095 0.000375319 0.0005 573 0 0 7 
61 1 1 -0.000253761 0.000352977 0.00350391 0 0 0 1.24671e-06 -7.50609e-06 9.87672e-07 -1.62672e-05 -2.05535e-05 1.25331e-05 -0.0180335 0.00449123 0.00495505 0.0005 573 0 0 8 
128 1 1 0.000748746 0.000481796 0.00371125 0 0 0 -2.69274e-06 -4.72027e-06 1.1632e-05 -9.4918e-06 -5.28002e-06 2.18604e-06 -0.0146889 0.0118643 -0.0130944 0.0005 573 0 0 4 
115 1 1 0.00164782 0.000882267 0.00373057 0 0 0 -2.89465e-06 -6.50253e-06 4.34226e-06 -6.69329e-06 -1.27924e-05 -7.85381e-06 -0.00258619 -0.00152454 0.00526916 0.0005 573 0 0 5 
146 1 1 0.00251302 0.000488314 0.0039898 0 0 0 -1.57677e-06 -1.8652e-06 2.87982e-06 -4.61915e-06 -3.25653e-06 -1.55558e-06 -0.000303722 0.00316004 0.00142695 0.0005 573 0 0 6 
150 1 1 -0.00177695 0.000584546 0.00468003 0 0 0 2.85388e-05 6.52364e-05 -1.92315e-06 -6.38485e-05 0.000136545 -0.000116522 -0.14738 0.0279861 0.157744 0.0005 573 0 0 9 
132 1 1 -0.000828613 0.000686402 0.0048752 0 0 0 2.33985e-05 7.42428e-05 3.59163e-06 -4.62892e-06 -1.46077e-05 -6.2686e-05 -0.107269 -0.0120947 -0.113434 0.0005 573 0 0 7 
123 1 1 5.73018e-05 0.000790449 0.00434713 0 0 0 5.58504e-06 1.85512e-05 7.05511e-06 -2.20945e-06 2.96784e-05 -1.04903e-06 -0.0163982 -0.0117255 -0.0102069 0.0005 573 0 0 7 
170 1 1 0.000990389 0.000956227 0.00460144 0 0 0 -3.96299e-06 3.72642e-06 6.10461e-06 -4.78638e-06 8.1129e-06 5.31847e-06 0.00434184 0.000240019 -0.0134338 0.0005 573 0 0 6 
106 1 1 0.00170138 0.000275963 0.00450727 0 0 0 -6.14412e-06 -2.38095e-06 3.46109e-06 -3.28205e-06 -4.37669e-06 -2.61375e-06 -0.000637322 -0.00522675 -0.00292406 0.0005 573 0 0 9 
112 1 1 0.00251167 0.000367681 0.00505876 0 0 0 -3.19903e-06 -8.77247e-07 2.28904e-06 -3.60689e-06 -6.32508e-07 -1.09954e-06 -0.00369141 0.00464885 0.00150875 0.0005 573 0 0 6 
107 1 1 -0.00247665 0.000615609 0.00570917 0 0 0 0.0475311 0.00726279 0.00638999 0 0 -1.76696e-05 559.839 295.082 -381.072 0.0005 573 0 0 0 
62 1 1 -0.00150699 0.000118671 0.00551259 0 0 0 2.96024e-05 0.000483024 4.0037e-05 -0.000500132 3.98503e-05 -3.95397e-05 -0.129098 -0.0707451 -0.245367 0.0005 573 0 0 5 
130 1 1 -0.000693716 0.000594816 0.00584033 0 0 0 2.74085e-05 8.04677e-05 2.61413e-05 1.12895e-05 -0.000150913 -7.53658e-05 0.0630708 -0.00332135 -0.217246 0.0005 573 0 0 7 
122 1 1 1.03497e-05 0.000303737 0.00520686 0 0 0 -2.79281e-06 1.79549e-05 1.55168e-05 2.17148e-05 2.56336e-05 -2.28763e-05 0.0287221 -0.0132869 -0.0114701 0.0005 573 0 0 9 
53 1 1 0.000962718 9.64484e-05 0.00512607 0 0 0 -7.55219e-06 5.84399e-06 7.74626e-06 8.29524e-06 1.36047e-05 -1.36935e-05 -0.0030345 0.0125518 -0.00961212 0.0005 573 0 0 8 
104 1 1 0.000777594 0.000293399 0.00608222 0 0 0 -2.49321e-05 7.54456e-06 3.39057e-06 2.56375e-05 1.85975e-05 1.67428e-05 0.0132498 -0.0345366 -0.0162607 0.0005 573 0 0 7 
124 1 1 0.00175599 0.000262368 0.0056932 0 0 0 -6.18442e-06 -1.21586e-06 3.47217e-06 -1.11066e-05 -7.58626e-07 9.53073e-07 0.00973287 -0.00379099 0.00394941 0.0005 573 0 0 6 
133 1 1 -0.00251043 0.000139147 0.00666401 0 0 0 1.58294e-05 2.41592e-05 -1.01152e-05 -0.000102467 -1.13879e-05 0.000175536 0.0696842 -0.0278823 0.0296639 0.0005 573 0 0 4 
120 1 1 -0.00165528 0.000632534 0.00665334 0 0 0 1.38301e-05 3.3179e-05 2.93647e-05 -7.97403e-05 7.17218e-05 5.20694e-05 -0.111161 -0.0334422 -0.0322937 0.0005 573 0 0 6 
116 1 1 -0.000831374 8.76286e-05 0.00667204 0 0 0 -1.17723e-05 3.81774e-05 3.05012e-05 -1.50861e-05 2.68282e-05 -0.000135484 0.0449136 0.0733762 -0.0299028 0.0005 573 0 0 4 
110 1 1 5.09625e-05 0.000588633 0.00667277 0 0 0 -1.14541e-05 1.90533e-05 5.29413e-06 1.26551e-05 -1.17782e-05 1.03608e-07 0.0385825 0.0338722 -0.0678308 0.0005 573 0 0 5 
101 1 1 0.00163141 0.000378532 0.00666418 0 0 0 -7.15577e-06 -3.77158e-06 1.20755e-06 -1.30206e-05 -5.62845e-06 2.78358e-07 -0.00808332 0.00843267 0.0186543 0.0005 573 0 0 4 
157 1 1 0.00250121 0.000902572 0.00666414 0 0 0 -2.401e-07 -6.39883e-07 1.60391e-07 -4.49114e-07 -1.17215e-06 -1.44194e-06 -0.000819023 -9.61246e-05 0.00239697 0.0005 573 0 0 3 
164 1 1 -0.00229303 0.00126855 0.000493732 0 0 0 3.66283e-07 -3.33776e-06 1.73877e-08 -7.02874e-06 -9.3689e-06 -2.05459e-06 0.00225868 0.00111554 0.00557129 0.0005 573 0 0 3 
156 1 1 -0.00158817 0.00196589 0.000489465 0 0 0 8.38005e-07 -4.91071e-06 2.62978e-07 -1.05187e-05 -1.34284e-05 2.06861e-06 0.00777652 0.00121415 -0.00564167 0.0005 573 0 0 3 
171 1 1 -0.000340147 0.00126586 0.000490035 0 0 0 1.72502e-06 -5.79401e-06 2.78915e-07 -1.45733e-05 -1.77615e-05 -4.17422e-07 0.00433916 0.00168326 0.000137379 0.0005 573 0 0 5 
175 1 1 0.000876504 0.0018384 0.000485372 0 0 0 3.36082e-07 -5.13237e-06 1.24171e-06 -1.50911e-05 -1.56153e-05 -1.82338e-06 0.00604122 -0.000180283 -0.000553798 0.0005 573 0 0 5 
184 1 1 0.00185689 0.0017159 0.00048956 0 0 0 -5.91369e-07 -4.61929e-06 2.04689e-06 -1.29549e-05 -1.1911e-05 4.18126e-06 0.00696686 -0.00237338 6.00489e-05 0.0005 573 0 0 4 
138 1 1 0.00127104 0.00107054 0.000969455 0 0 0 7.10642e-07 -7.40811e-06 1.91593e-06 -1.47052e-05 -1.82933e-05 -2.60122e-06 -0.00161312 -0.000385391 0.00433173 0.0005 573 0 0 6 
155 1 1 -0.00251354 0.00178938 0.00130643 0 0 0 -5.75938e-07 -4.85021e-06 -1.73136e-07 -8.29005e-06 -1.20814e-05 -3.4312e-06 -0.000570313 -0.000490762 -0.00755661 0.0005 573 0 0 6 
194 1 1 -0.00167184 0.00128584 0.00130527 0 0 0 -6.3038e-07 -1.09286e-05 7.09969e-07 -1.35437e-05 -2.5567e-05 2.78531e-06 -0.00203814 0.00186927 -0.00169605 0.0005 573 0 0 6 
161 1 1 -0.00108857 0.00163225 0.00200248 0 0 0 -3.48925e-07 -1.25022e-05 1.1737e-06 -2.17895e-05 -2.58379e-05 5.16061e-06 0.00194753 -0.00189675 -0.000214919 0.0005 573 0 0 8 
17 1 1 -0.000165467 0.00190834 0.00182013 0 -1 0 -5.8934e-07 -1.3106e-05 2.73503e-06 -2.53739e-05 -2.64208e-05 4.84156e-07 0.00401622 -0.000789347 -0.000263754 0.0005 573 0 0 7 
158 1 1 -0.000511092 0.00103632 0.00146067 0 0 0 7.28602e-07 -1.26979e-05 7.81748e-07 -2.15595e-05 -2.87176e-05 4.21989e-07 0.000760123 0.000115792 0.000691111 0.0005 573 0 0 5 
162 1 1 -0.000811629 0.00190115 0.00108085 0 0 0 9.02085e-07 -1.09294e-05 1.33651e-06 -2.02509e-05 -2.73416e-05 3.72099e-06 0.0035341 -0.00380239 0.000301399 0.0005 573 0 0 7 
192 1 1 0.000362225 0.00138073 0.00118237 0 0 0 5.17559e-07 -1.01958e-05 1.35214e-06 -2.24659e-05 -2.68592e-05 -2.25581e-06 0.0020351 -0.00114746 0.00134826 0.0005 573 0 0 8 
30 1 1 0.00140859 0.0018883 0.00159144 0 -1 0 -1.14926e-07 -8.69474e-06 2.89115e-06 -1.76769e-05 -1.90554e-05 -2.94354e-06 0.00960193 -0.00795956 0.00255766 0.0005 573 0 0 5 
163 1 1 0.00215789 0.00129032 0.00135179 0 0 0 -3.94507e-07 -5.79713e-06 2.29494e-06 -1.07198e-05 -1.11867e-05 5.56604e-07 0.000342525 3.29625e-05 -0.00258051 0.0005 573 0 0 6 
174 1 1 -0.00250403 0.00135014 0.00217859 0 0 0 -2.16289e-07 -4.38778e-06 -1.4781e-06 -6.11461e-06 -7.43161e-06 -5.14826e-06 0.00179112 0.00357392 -0.0022605 0.0005 573 0 0 4 
166 1 1 -0.00251101 0.00188824 0.00299604 0 0 0 -1.06238e-06 -7.14364e-06 5.93246e-07 -4.70692e-06 -1.00326e-05 -7.16038e-07 0.00686497 -0.00239489 -0.00397386 0.0005 573 0 0 5 
195 1 1 -0.000549005 0.00175814 0.00281099 0 0 0 -3.63065e-06 -1.22107e-05 3.23153e-06 -2.57458e-05 -1.99582e-05 7.90504e-06 0.00342076 -0.00130705 0.00311269 0.0005 573 0 0 7 
159 1 1 0.000147936 0.00120127 0.00242405 0 0 0 -1.716e-06 -1.28864e-05 2.85645e-06 -2.64131e-05 -2.33619e-05 -3.15612e-06 -0.00297567 -0.000168266 -3.866e-05 0.0005 573 0 0 8 
183 1 1 0.000730087 0.0019934 0.00253825 0 0 0 -2.46297e-06 -1.21109e-05 5.41714e-06 -2.20163e-05 -2.08078e-05 -4.9785e-06 0.000695952 -0.00219725 0.001943 0.0005 573 0 0 6 
186 1 1 0.000960755 0.00112254 0.00298895 0 0 0 -2.65457e-06 -1.01861e-05 4.3317e-06 -1.81288e-05 -1.77475e-05 -8.41087e-06 -0.00104512 -0.00129397 0.00269543 0.0005 573 0 0 7 
196 1 1 0.00167032 0.00130494 0.00233253 0 0 0 -2.48785e-06 -8.78174e-06 3.90675e-06 -1.40601e-05 -1.69565e-05 -3.3939e-06 -0.00610594 0.000219853 0.0037294 0.0005 573 0 0 7 
16 1 1 0.00251399 0.00179258 0.00227353 0 -1 0 -1.43259e-06 -3.2367e-06 1.67139e-06 -5.92702e-06 -7.10298e-06 -1.40542e-06 0.0018247 0.000513739 0.00154639 0.0005 573 0 0 6 