ITEM: TIMESTEP
7939000
ITEM: NUMBER OF ENTRIES
19133
ITEM: BOX BOUNDS mm pp mm
-0.01 0.01
-0.0075 0.0075
0 0.03
ITEM: ENTRIES c_fc[1] c_fc[2] c_fc[3] c_fc[4] c_fc[5] c_fc[6] c_fc[7] c_fc[8] c_fc[9] c_fc[10] c_fc[11] c_fc[12] c_fc[13] c_fc[14] 
-0.00949677 -0.00681739 0.000503206 -0.00876954 0.00748186 0.000506664 1360 1101 0 -0.0637308 0.043187 -0.00587695 2.31182e-10 0.0333422 
-0.00876954 0.00748186 0.000506664 -0.00850199 0.00658332 0.000895676 1101 606 1 0.000275261 -0.00223283 0.000632778 3.77442e-11 0.00618214 
-0.00876954 0.00748186 0.000506664 -0.0079838 0.0074244 0.00114924 1101 312 1 -0.0299738 -0.0057752 0.0281951 1.55835e-10 0.0261859 
-0.00775511 -0.00681185 0.000510917 -0.00689954 -0.00722432 0.00089368 2577 1795 0 -0.18455 0.0998227 -0.0894286 6.47336e-10 0.0412467 
-0.00775511 -0.00681185 0.000510917 -0.00861118 -0.00626055 0.00051169 2577 620 0 0.18851 -0.10603 0.00771235 5.01642e-10 -0.0480961 
-0.00689954 -0.00722432 0.00089368 -0.00735044 0.00693669 0.000512301 1795 1384 1 -0.0209299 -0.0485481 -0.0107967 2.50488e-10 -0.00823504 
-0.00689954 -0.00722432 0.00089368 -0.00713886 0.00708947 0.0016178 1795 1415 1 -0.0587773 -0.0554805 -0.0817218 4.51547e-10 -0.0104337 
-0.00689954 -0.00722432 0.00089368 -0.00618762 0.00705734 0.00108269 1795 210 1 -0.180369 -0.0384608 0.0855442 9.51239e-10 0.0491945 
-0.00689954 -0.00722432 0.00089368 -0.00650725 -0.00684485 0.00176457 1795 231 0 0.0413384 -0.221651 0.0478076 7.55706e-11 0.00478204 
-0.0059421 -0.00711593 0.000516249 -0.00500065 -0.00668565 0.000518852 2282 1904 0 0.00937194 0.0215322 -0.0531864 8.21073e-11 0.00615457 
-0.0059421 -0.00711593 0.000516249 -0.00587014 -0.00608547 0.00051612 2282 2369 0 -0.129648 -0.96061 0.0616682 1.78477e-09 -0.00101885 
-0.0059421 -0.00711593 0.000516249 -0.00618762 0.00705734 0.00108269 2282 210 1 0.165703 0.85295 -0.594675 1.99109e-09 -0.0308166 
-0.0059421 -0.00711593 0.000516249 -0.00557038 -0.00717898 0.00148034 2282 1598 0 -0.207655 -0.0431982 -0.106337 4.29227e-10 0.0178853 
-0.00380965 -0.00651806 0.000521276 -0.00336292 -0.00683187 0.00141082 792 2343 0 -0.117241 0.0913004 -0.294599 7.07624e-10 0.0113338 
-0.00380965 -0.00651806 0.000521276 -0.00428646 -0.00597969 0.00127537 792 643 0 0.0976173 -0.130055 -0.0962002 6.15219e-10 -0.0168496 
-0.00287134 -0.00708063 0.00052269 -0.00339675 0.00701631 0.000521904 1266 220 1 0.100159 0.410526 0.0123404 8.01569e-10 -0.0149263 
-0.00287134 -0.00708063 0.00052269 -0.00259352 -0.00607215 0.00052311 1266 2537 0 -0.212835 -0.568758 -0.205875 1.15434e-09 0.0140151 
-0.00287134 -0.00708063 0.00052269 -0.00336292 -0.00683187 0.00141082 1266 2343 0 0.0528254 -0.0589814 -0.151618 5.16538e-10 -0.0094 
-0.00185789 -0.00681744 0.000525962 -0.00259352 -0.00607215 0.00052311 219 2537 0 0.117502 -0.176571 0.0106364 6.67679e-10 -0.00352077 
-0.00185789 -0.00681744 0.000525962 -0.00158023 -0.00580759 0.000523485 219 615 0 -0.0602953 -0.355999 0.0345858 9.37906e-10 0.00173948 
-0.00185789 -0.00681744 0.000525962 -0.00151597 -0.00721874 0.00143134 219 603 0 -0.0308948 0.0389431 -0.0814327 3.53702e-10 0.0011827 
-0.00083396 -0.00654336 0.000524204 -2.5249e-05 -0.00721055 0.000524226 599 1115 0 -0.0759478 0.0791208 -0.0150169 3.75565e-10 0.000638706 
-0.00083396 -0.00654336 0.000524204 -0.00158023 -0.00580759 0.000523485 599 615 0 0.104342 -0.106653 -0.0238362 4.80907e-10 -0.00413839 
-2.5249e-05 -0.00721055 0.000524226 -0.000256254 0.00676691 0.000523918 1115 926 1 0.0229671 0.220541 0.0205823 6.27522e-10 3.13847e-05 
-0.00949643 -0.00577216 0.000503277 -0.00861118 -0.00626055 0.00051169 1295 620 0 -0.172119 0.107332 -0.000602593 5.00711e-10 0.054598 
-0.00949643 -0.00577216 0.000503277 -0.00864156 -0.00523555 0.000538692 1295 300 0 0.000509211 0.000193446 2.12717e-05 6.6775e-12 0.00395201 
-0.00949643 -0.00577216 0.000503277 -0.00949649 -0.00629505 0.00136401 1295 2469 0 -0.00260622 -0.0221373 -0.0218763 3.04898e-10 -0.00291686 
-0.00949643 -0.00577216 0.000503277 -0.00949662 -0.00514654 0.00129254 1295 2266 0 -0.00968265 -0.227176 -0.443023 9.6517e-10 0.00369912 
-0.00772757 -0.00568895 0.000510543 -0.00688406 -0.00627023 0.000513817 1012 1283 0 -0.0927582 0.0404296 -0.0048495 1.18393e-10 0.0146459 
-0.00772757 -0.00568895 0.000510543 -0.0076144 -0.00467326 0.000510867 1012 218 0 -0.018908 -0.271086 0.0530395 7.22728e-10 0.00101205 
-0.00772757 -0.00568895 0.000510543 -0.00799217 -0.00624213 0.00132646 1012 1743 0 0.177135 0.354063 -0.60372 1.62026e-09 -0.0181242 
-0.00587014 -0.00608547 0.00051612 -0.00576246 -0.00506762 0.000653586 2369 2561 0 -0.00222718 -0.751945 -0.124061 1.40998e-09 -0.0108439 
-0.00587014 -0.00608547 0.00051612 -0.00642615 -0.00589818 0.00136551 2369 2116 0 0.164003 -0.117127 -0.243662 1.14711e-09 -0.0217692 
-0.00587014 -0.00608547 0.00051612 -0.00530028 -0.00618204 0.00137427 2369 2658 0 -0.326283 -0.0326404 -0.542831 1.2537e-09 0.0311627 
-0.00491622 -0.00564789 0.000518485 -0.00576246 -0.00506762 0.000653586 574 2561 0 0.110632 0.133117 0.0941668 1.35216e-10 -0.0140595 
-0.00491622 -0.00564789 0.000518485 -0.00428646 -0.00597969 0.00127537 574 643 0 -0.0695159 0.0601682 -0.0319309 1.76673e-10 0.0188879 
-0.00259352 -0.00607215 0.00052311 -0.00158023 -0.00580759 0.000523485 2537 615 0 -0.123181 0.0626358 -0.133458 7.06309e-10 0.00513071 
-0.00259352 -0.00607215 0.00052311 -0.00309679 -0.00515507 0.000522766 2537 227 0 0.168948 -0.20514 0.078621 9.32578e-10 -0.0140608 
-0.00259352 -0.00607215 0.00052311 -0.00225233 -0.00552019 0.00134434 2537 1581 0 -0.256277 -0.563837 -0.700886 1.97067e-09 0.0131444 
-0.00158023 -0.00580759 0.000523485 -0.00208327 -0.00488937 0.000525814 615 323 0 0.26912 -0.475948 -0.136884 1.33631e-09 -0.00444365 
-0.00158023 -0.00580759 0.000523485 -0.000585541 -0.00547816 0.000523889 615 1180 0 -0.205729 -0.00402307 -0.0576274 6.00067e-10 0.00306752 
-0.00158023 -0.00580759 0.000523485 -0.00130128 -0.00618426 0.00146051 615 2311 0 -0.0511545 0.0514628 -0.14825 5.99847e-10 0.0014317 
-0.00158023 -0.00580759 0.000523485 -0.00127781 -0.0051427 0.00127432 615 1230 0 -0.0431443 -0.149832 -0.280937 9.77362e-10 0.00235731 
-0.00949679 -0.00452062 0.000503386 -0.00852982 -0.0042277 0.000507145 2725 413 0 -0.142552 -0.0482725 -0.0058699 5.39306e-10 0.056111 
-0.00949679 -0.00452062 0.000503386 -0.00949662 -0.00514654 0.00129254 2725 2266 0 -0.0198059 -0.00973732 -0.0589882 3.0161e-10 0.00558494 
-0.0076144 -0.00467326 0.000510867 -0.00676676 -0.00524948 0.000513804 218 1378 0 -0.0849288 0.0536347 -0.0200889 5.5152e-10 0.0421281 
-0.0076144 -0.00467326 0.000510867 -0.00852982 -0.0042277 0.000507145 218 413 0 0.17897 -0.1439 -0.0127815 6.13058e-10 -0.0634434 
-0.0076144 -0.00467326 0.000510867 -0.00669355 -0.00422227 0.000514525 218 1387 0 -0.116881 -0.0989743 -0.00656797 3.49858e-10 0.0369222 
-0.0076144 -0.00467326 0.000510867 -0.00800827 -0.00512876 0.00133503 218 2149 0 0.06995 0.0781967 -0.1771 7.32023e-10 -0.0228179 
-0.00676676 -0.00524948 0.000513804 -0.00576246 -0.00506762 0.000653586 1378 2561 0 -0.171574 0.00167524 -0.0129537 7.35025e-10 0.0436871 
-0.00676676 -0.00524948 0.000513804 -0.00700029 -0.00505347 0.00149514 1378 2593 0 0.216259 0.0293049 -0.0320508 3.38392e-10 -0.00326894 
-0.00576246 -0.00506762 0.000653586 -0.0056771 -0.00404707 0.000516755 2561 1741 0 -0.120134 -0.575792 0.046536 9.48808e-10 0.0132611 
-0.00576246 -0.00506762 0.000653586 -0.00573376 -0.00519821 0.00167835 2561 1661 0 -0.0219167 -0.00195627 -0.130802 3.08473e-10 0.00564796 
-0.00412394 -0.00496925 0.000520573 -0.0048429 -0.00486491 0.00126494 1823 730 0 0.0159466 -0.00454934 -0.0120359 3.1767e-10 -0.0148142 
-0.00412394 -0.00496925 0.000520573 -0.00383699 -0.00494434 0.00152183 1823 2454 0 -0.0786744 -0.0151532 -0.266636 8.15549e-10 0.0135212 
-0.00309679 -0.00515507 0.000522766 -0.00344935 -0.00417139 0.000522058 227 1241 0 0.0720939 -0.225687 -0.0124756 6.7766e-10 -0.00974408 
-0.00309679 -0.00515507 0.000522766 -0.00326177 -0.00579468 0.00133296 227 735 0 0.00944549 0.0312616 -0.0270359 4.27349e-10 -0.00457303 
-0.00208327 -0.00488937 0.000525814 -0.00243849 -0.00390548 0.00052246 323 2717 0 0.256291 -0.770518 0.181486 1.45582e-09 -0.0164489 
-0.00208327 -0.00488937 0.000525814 -0.00225233 -0.00552019 0.00134434 323 1581 0 0.0329225 0.232458 -0.2794 1.37103e-09 0.00831638 
-0.000585541 -0.00547816 0.000523889 -0.000941352 -0.00449259 0.000523536 1180 1959 0 0.0727132 -0.27904 -0.0110563 8.1338e-10 -0.000968008 
-0.000585541 -0.00547816 0.000523889 -0.000397547 -0.00564395 0.00154162 1180 1507 0 -0.0163462 0.0266829 -0.0726188 3.61985e-10 -0.000268167 
-0.00852982 -0.0042277 0.000507145 -0.00875568 -0.00336147 0.000982022 413 2682 0 0.0433065 -0.112825 -0.0639175 3.21492e-10 -0.0107187 
-0.00781158 -0.0035017 0.000515839 -0.00795391 -0.00248764 0.000509621 1175 616 0 0.000241911 -0.000696576 -1.90913e-05 4.53117e-11 -0.0116186 
-0.00669355 -0.00422227 0.000514525 -0.0056771 -0.00404707 0.000516755 1387 1741 0 -0.0474077 -0.0547821 -0.00479061 2.03858e-10 0.0265828 
-0.0056771 -0.00404707 0.000516755 -0.00518659 -0.00313566 0.000522665 1741 1466 0 -0.118837 -0.306244 -0.0308542 7.41124e-10 0.0176561 
-0.0056771 -0.00404707 0.000516755 -0.00529995 -0.00395772 0.00147639 1741 640 0 -0.11463 -0.0851988 -0.375297 9.49031e-10 0.0209001 
-0.0046339 -0.00404764 0.000523227 -0.00400922 -0.00381645 0.00132732 2724 62 0 -0.11297 0.0949585 0.0239787 3.50286e-11 -0.00680137 
-0.00344935 -0.00417139 0.000522058 -0.00243849 -0.00390548 0.00052246 1241 2717 0 -0.119236 -0.0542969 -0.0132846 4.4407e-10 0.0100126 
-0.00344935 -0.00417139 0.000522058 -0.00400922 -0.00381645 0.00132732 1241 62 0 0.208605 -0.160034 -0.300834 9.02695e-10 -0.0231699 
-0.00243849 -0.00390548 0.00052246 -0.00316102 -0.00315143 0.000523702 2717 1863 0 0.542429 -0.6792 -0.0362345 1.59418e-09 -0.0242311 
-0.00243849 -0.00390548 0.00052246 -0.00168428 -0.00418095 0.00119278 2717 1726 0 -0.520021 0.142399 -0.542071 1.56179e-09 0.0164146 
-0.000941352 -0.00449259 0.000523536 0.000101829 -0.0045937 0.000523933 1959 1630 0 -0.0665403 0.00128995 -0.0122631 3.79976e-10 0.000322713 
-0.000941352 -0.00449259 0.000523536 -0.000550339 -0.0035203 0.000523909 1959 309 0 -0.0912123 -0.222562 -0.00895847 6.80045e-10 0.00172592 
-0.000941352 -0.00449259 0.000523536 -0.00168428 -0.00418095 0.00119278 1959 1726 0 0.227896 -0.0422213 -0.280164 9.34454e-10 -0.00698776 
-0.000941352 -0.00449259 0.000523536 -0.000640865 -0.00434687 0.0015167 1959 619 0 -0.0278397 -0.0336437 -0.288372 7.80698e-10 9.77597e-05 
-0.000550339 -0.0035203 0.000523909 -0.000321279 -0.00249742 0.000524298 309 1281 0 -0.0389738 -0.200479 -0.0050236 6.06676e-10 0.00167492 
-0.000550339 -0.0035203 0.000523909 8.09961e-05 -0.00360428 0.00135613 309 110 0 -0.136831 0.0107714 -0.153306 6.28451e-10 -0.00216207 
-0.000550339 -0.0035203 0.000523909 -0.00104851 -0.00338489 0.00143604 309 1310 0 0.0649946 -0.0414847 -0.0691482 3.96636e-10 -0.00193943 
-0.00949691 -0.00287155 0.000503033 -0.00875568 -0.00336147 0.000982022 2212 2682 0 0.028616 0.047354 -0.051759 5.26031e-12 0.00471847 
-0.00949691 -0.00287155 0.000503033 -0.00949696 -0.0018654 0.000503008 2212 2621 0 0.0082056 -0.0100028 -0.00106308 9.27323e-11 0.000103078 
-0.00875568 -0.00336147 0.000982022 -0.00847239 -0.00364206 0.0019152 2682 1401 0 -0.00845468 0.0030841 -0.0173113 8.71441e-11 0.0133501 
-0.00875568 -0.00336147 0.000982022 -0.00949666 -0.00298782 0.00155701 2682 1800 0 0.112457 0.0385653 0.0469189 2.30458e-10 -0.02793 
-0.00674326 -0.00319455 0.000514379 -0.00599281 -0.00248806 0.000516322 2278 112 0 -0.0285266 -0.0187642 -0.00331267 1.80296e-10 0.0142409 
-0.00674326 -0.00319455 0.000514379 -0.00698697 -0.00284423 0.00144833 2278 2005 0 0.0509937 -0.0291905 -0.11429 3.19552e-10 -0.0240771 
-0.00518659 -0.00313566 0.000522665 -0.00417455 -0.00297193 0.000688606 1466 2470 0 -0.309734 -0.0259188 -0.0208987 7.21296e-10 0.0425619 
-0.00518659 -0.00313566 0.000522665 -0.00599281 -0.00248806 0.000516322 1466 112 0 0.217225 -0.176233 0.01575 5.6761e-10 -0.0309471 
-0.00417455 -0.00297193 0.000688606 -0.00316102 -0.00315143 0.000523702 2470 1863 0 -0.329736 0.0333393 0.0276064 7.89027e-10 0.0261584 
-0.00417455 -0.00297193 0.000688606 -0.00435736 -0.00196082 0.000520346 2470 2210 0 -0.00968378 -0.0364562 -0.0991101 1.66269e-10 -0.00134072 
-0.00417455 -0.00297193 0.000688606 -0.00385252 -0.00261069 0.00161199 2470 2449 0 0.0196965 -0.00868331 -0.0287184 2.4283e-10 0.0120396 
-0.00316102 -0.00315143 0.000523702 -0.00332749 -0.00212131 0.000521562 1863 1358 0 0.160732 -0.612251 0.0140107 1.33715e-09 -0.00158528 
-0.00234994 -0.00249109 0.000523017 -0.00332749 -0.00212131 0.000521562 1770 1358 0 0.0321407 -0.018757 0.0040243 2.00064e-10 -0.00939554 
-0.00234994 -0.00249109 0.000523017 -0.00181508 -0.00250499 0.00142231 1770 1716 0 -0.0267093 0.0457698 -0.0890198 3.98369e-10 0.00451857 
-0.000321279 -0.00249742 0.000524298 -0.00132979 -0.00220316 0.000537917 1281 2727 0 -0.00330278 -0.00262397 -0.00241637 9.53585e-12 0.00387809 
-0.000321279 -0.00249742 0.000524298 -0.000560426 -0.00147695 0.000523641 1281 2195 0 0.0350528 -0.1704 0.00124337 5.52223e-10 -0.00362357 
-0.00949696 -0.0018654 0.000503008 -0.00871121 -0.00123065 0.000506758 2621 2478 0 0.0301568 -0.0366575 -0.0486504 6.55979e-11 0.0203931 
-0.00949696 -0.0018654 0.000503008 -0.00949687 -0.00107117 0.00112121 2621 939 0 -0.0138782 -0.0583889 -0.0411806 2.52285e-10 0.00412928 
-0.00795391 -0.00248764 0.000509621 -0.00697639 -0.00218706 0.000528071 616 1853 0 -0.397635 -0.110901 -0.0677162 1.08793e-09 0.0461589 
-0.00795391 -0.00248764 0.000509621 -0.00772768 -0.00149198 0.000510768 616 2421 0 -0.00779287 -0.28284 0.00662056 8.83725e-10 0.00443285 
-0.00795391 -0.00248764 0.000509621 -0.00800874 -0.00286116 0.00145614 616 1043 0 0.177628 0.464876 -1.37673 2.43847e-09 -0.0252179 
-0.00795391 -0.00248764 0.000509621 -0.00880268 -0.00235174 0.00105428 616 1699 0 0.0400015 0.111298 -0.0287308 2.41838e-10 -0.0357726 
-0.00697639 -0.00218706 0.000528071 -0.00599281 -0.00248806 0.000516322 1853 112 0 -0.351046 0.0695966 0.03459 6.67474e-10 0.0555663 
-0.00697639 -0.00218706 0.000528071 -0.00772768 -0.00149198 0.000510768 1853 2421 0 0.0187365 -0.025842 9.21939e-05 1.84376e-10 -0.0169776 
-0.00697639 -0.00218706 0.000528071 -0.00698755 -0.00167592 0.00141778 1853 173 0 -0.0216512 -0.158158 -0.190481 3.89835e-10 0.00838763 
-0.00599281 -0.00248806 0.000516322 -0.00535571 -0.00167274 0.000518681 112 143 0 -0.137774 -0.118578 0.0023023 4.39985e-10 0.0342278 
-0.00535571 -0.00167274 0.000518681 -0.00435736 -0.00196082 0.000520346 143 2210 0 -0.133009 0.012178 0.0071608 4.29929e-10 0.0238029 
-0.00535571 -0.00167274 0.000518681 -0.0050928 -0.000793786 0.00100375 143 345 0 -0.00576552 -0.0680967 -0.0303847 2.74776e-10 0.00423416 
-0.00435736 -0.00196082 0.000520346 -0.00332749 -0.00212131 0.000521562 2210 1358 0 -0.155906 0.0822743 -0.147217 6.19582e-10 0.0246891 
-0.00435736 -0.00196082 0.000520346 -0.00458819 -0.00157918 0.00146026 2210 1985 0 0.0182571 -0.0461996 -0.0589067 4.15001e-10 -0.00662245 
-0.00332749 -0.00212131 0.000521562 -0.00366108 -0.00113261 0.00052162 1358 74 0 0.133511 -0.402769 -0.071311 1.10317e-09 -0.00205478 
-0.00332749 -0.00212131 0.000521562 -0.00257988 -0.00139143 0.000522674 1358 1293 0 -0.06084 -0.0471487 -0.0126187 4.77673e-10 0.0123791 
-0.00332749 -0.00212131 0.000521562 -0.00349544 -0.00162762 0.00142548 1358 2665 0 -0.0105288 -0.216114 -0.413119 1.09205e-09 -0.000240858 
-0.00871121 -0.00123065 0.000506758 -0.00772768 -0.00149198 0.000510768 2478 2421 0 -0.101269 0.204317 -0.0150591 4.49483e-10 0.0524325 
-0.00871121 -0.00123065 0.000506758 -0.0080577 -0.000452884 0.000508901 2478 754 0 -0.0338662 -0.126192 -0.155188 4.2156e-10 0.0269003 
-0.00871121 -0.00123065 0.000506758 -0.00949687 -0.00107117 0.00112121 2478 939 0 0.241039 -0.0260158 -0.194935 7.84487e-10 -0.0632417 
-0.00772768 -0.00149198 0.000510768 -0.00679415 -0.0010682 0.000516982 2421 2518 0 -0.118178 -0.0462068 0.101065 2.06384e-10 0.032627 
-0.00772768 -0.00149198 0.000510768 -0.00764151 -0.000891858 0.00133315 2421 2133 0 0.108727 -0.0362273 -0.259002 3.42115e-10 0.00126435 
-0.00679415 -0.0010682 0.000516982 -0.00595042 -0.000475346 0.000518102 2518 459 0 -0.0672105 -0.0626431 -0.0252125 2.12704e-10 0.0224184 
-0.0050928 -0.000793786 0.00100375 -0.00595042 -0.000475346 0.000518102 345 459 0 0.123529 -0.0530383 0.0410108 4.58388e-10 -0.0316876 
-0.0050928 -0.000793786 0.00100375 -0.00430656 -0.000314002 0.000520679 345 129 0 -0.0752343 -0.0278938 0.0330686 3.35083e-10 0.0224673 
-0.0050928 -0.000793786 0.00100375 -0.00458819 -0.00157918 0.00146026 345 1985 0 -0.0283832 0.0743132 0.0281537 1.00507e-10 0.00568893 
-0.0050928 -0.000793786 0.00100375 -0.00485798 -0.000475118 0.00196404 345 1585 0 0.0519717 0.0072006 -0.0207702 1.05518e-10 0.00263626 
-0.00366108 -0.00113261 0.00052162 -0.00430656 -0.000314002 0.000520679 74 129 0 0.202716 -0.305876 0.0318324 1.01981e-09 -0.0190066 
-0.00366108 -0.00113261 0.00052162 -0.00349544 -0.00162762 0.00142548 74 2665 0 -0.0111967 0.0499213 -0.149026 5.96404e-10 0.00133283 
-0.00366108 -0.00113261 0.00052162 -0.00298384 -0.000683278 0.00117721 74 2611 0 -0.116789 -0.148481 -0.192735 7.70822e-10 0.0111403 
-0.00257988 -0.00139143 0.000522674 -0.00155909 -0.00116158 0.000523159 1293 115 0 -0.0893327 -0.0363131 -0.0106407 4.76961e-10 0.0088869 
-0.00257988 -0.00139143 0.000522674 -0.00238855 -0.00158737 0.00153203 1293 1398 0 -0.0357086 0.0159094 -0.193124 6.62986e-10 0.00406852 
-0.00257988 -0.00139143 0.000522674 -0.00298384 -0.000683278 0.00117721 1293 2611 0 -0.0627541 -0.0847259 0.0373905 2.27597e-10 -0.00342478 
-0.00155909 -0.00116158 0.000523159 -0.000560426 -0.00147695 0.000523641 115 2195 0 -0.261869 0.0974234 -0.028988 7.75103e-10 0.00837574 
-0.00155909 -0.00116158 0.000523159 -0.00223274 -0.000360878 0.000522804 115 1496 0 0.25197 -0.329397 0.0807324 9.99064e-10 -0.00546146 
-0.00155909 -0.00116158 0.000523159 -0.00134234 -0.00157176 0.00146138 115 561 0 -0.151975 0.237269 -0.487061 1.19757e-09 0.00243277 
-0.000560426 -0.00147695 0.000523641 -4.82479e-05 -0.00158417 0.00143111 2195 2076 0 -0.233649 -0.00607255 -0.427666 1.08185e-09 -0.000520771 
-0.0092714 -0.000304055 0.000507084 -0.00949678 0.000678194 0.000503217 2166 2321 0 0.0149886 -0.0418868 0.00728961 2.94606e-10 -0.0159175 
-0.0092714 -0.000304055 0.000507084 -0.00949687 -0.00107117 0.00112121 2166 939 0 -0.00296158 -0.0232345 0.0130626 5.14404e-11 -0.00547696 
-0.0092714 -0.000304055 0.000507084 -0.00867465 -0.000405096 0.00131623 2166 1286 0 -0.0696305 0.0379756 -0.107186 4.72342e-10 0.0186631 
-0.0080577 -0.000452884 0.000508901 -0.00779937 0.000116768 0.00131372 754 2555 0 -0.0916802 -0.12631 -0.206642 6.06054e-10 0.023541 
-0.0063133 0.000491234 0.000516255 -0.00595042 -0.000475346 0.000518102 233 459 0 -0.068127 0.148796 -0.0194711 4.76079e-10 0.0135626 
-0.0063133 0.000491234 0.000516255 -0.00676063 0.00141909 0.000514257 233 1456 0 0.0746506 -0.182601 -0.0200934 4.59912e-10 -0.0196795 
-0.00520186 0.000368678 0.000520529 -0.00455325 0.000291446 0.00133102 386 1188 0 -0.0108793 0.00369897 0.0107039 2.47299e-10 -0.000830422 
-0.00430656 -0.000314002 0.000520679 -0.00403359 0.000691831 0.000521572 129 1381 0 -0.0348327 -0.220971 -0.00167514 7.14009e-10 0.00814012 
-0.00430656 -0.000314002 0.000520679 -0.00399565 -0.000712417 0.00143203 129 2167 0 -0.0150236 0.0528196 -0.0899586 3.82821e-10 0.00193161 
-0.00430656 -0.000314002 0.000520679 -0.00455325 0.000291446 0.00133102 129 1188 0 0.120251 -0.134312 -0.15253 6.63735e-10 -0.00960586 
-0.00316624 0.00011068 0.000522503 -0.00223274 -0.000360878 0.000522804 2061 1496 0 -0.0461282 -1.18678e-05 -0.0523629 2.83829e-10 0.00776549 
-0.00316624 0.00011068 0.000522503 -0.00403359 0.000691831 0.000521572 2061 1381 0 0.0294405 -0.0295687 -0.000290804 2.74596e-10 -0.0114672 
-0.00316624 0.00011068 0.000522503 -0.00298384 -0.000683278 0.00117721 2061 2611 0 -0.0167764 0.0234855 -0.0226003 2.83024e-10 -3.50274e-06 
-0.00223274 -0.000360878 0.000522804 -0.00217189 0.000684046 0.000523099 1496 2327 0 0.000669567 -0.0778998 -0.00769136 3.40854e-10 0.00199847 
-0.00223274 -0.000360878 0.000522804 -0.00233981 9.00095e-05 0.00146044 1496 1925 0 0.0848304 -0.18972 -0.435183 1.10429e-09 -0.00330491 
-0.00115821 -0.00014524 0.000523666 -0.000140455 0.000106023 0.000526512 109 1095 0 -0.0671245 -0.0117147 -0.00535649 2.86971e-10 0.00254192 
-0.00115821 -0.00014524 0.000523666 -0.000970269 0.000885981 0.000523966 109 178 0 -0.00594203 -0.0596933 0.000486412 2.68157e-10 0.00120983 
-0.00115821 -0.00014524 0.000523666 -0.00150343 -0.00053783 0.00143112 109 332 0 0.0980376 0.123253 -0.387123 9.93338e-10 -0.00774567 
-0.00949678 0.000678194 0.000503217 -0.00850638 0.000470246 0.000519375 2321 2262 0 0.000365655 -0.00394232 0.00134423 1.2342e-12 0.00398988 
-0.00738687 0.000596365 0.000511259 -0.00779937 0.000116768 0.00131372 1880 2555 0 0.0271454 0.0555334 -0.105087 2.46438e-10 -0.00801701 
-0.00676063 0.00141909 0.000514257 -0.00573091 0.0014902 0.000516886 1456 2309 0 -0.00448129 0.017934 0.0962885 7.43429e-11 0.0182837 
-0.00676063 0.00141909 0.000514257 -0.00777748 0.00154794 0.000510605 1456 1700 0 0.120834 -0.0246935 -0.0285081 3.32736e-10 -0.0433317 
-0.00676063 0.00141909 0.000514257 -0.00661176 0.00189623 0.00141323 1456 1062 0 0.0508981 -0.0828748 -0.279839 5.94324e-10 0.000655237 
-0.00573091 0.0014902 0.000516886 -0.00484626 0.0012287 0.000989905 2309 2527 0 -0.291304 0.105169 -0.144509 9.42567e-10 0.0342151 
-0.00573091 0.0014902 0.000516886 -0.00493177 0.00214999 0.000518921 2309 469 0 -0.304792 -0.37352 0.00952183 1.21994e-09 0.0342523 
-0.00573091 0.0014902 0.000516886 -0.00592824 0.0025052 0.000516325 2309 449 0 0.0702631 -0.19928 0.0622125 7.48002e-10 -0.0187404 
-0.00573091 0.0014902 0.000516886 -0.00597468 0.00097649 0.00137953 2309 2251 0 0.348354 0.47462 -0.866521 1.87509e-09 -0.033035 
-0.00484626 0.0012287 0.000989905 -0.00493177 0.00214999 0.000518921 2527 469 0 -0.039557 -0.319066 0.149274 9.50112e-10 -0.0041239 
-0.00484626 0.0012287 0.000989905 -0.00455325 0.000291446 0.00133102 2527 1188 0 -0.129306 0.25811 -0.108049 7.60294e-10 0.017614 
-0.00484626 0.0012287 0.000989905 -0.00391496 0.00115684 0.00144753 2527 1207 0 -0.141893 0.0183266 -0.108327 4.55741e-10 0.0192492 
-0.00403359 0.000691831 0.000521572 -0.00397789 0.00173334 0.000521523 1381 2516 0 -0.00633564 -0.130515 0.00572397 4.19423e-10 0.00155974 
-0.00403359 0.000691831 0.000521572 -0.00455325 0.000291446 0.00133102 1381 1188 0 0.00121311 0.000429326 -0.00170628 2.72681e-10 -0.0111874 
-0.00309898 0.00116885 0.000524224 -0.00217189 0.000684046 0.000523099 2382 2327 0 -0.0988103 0.0538911 0.00304474 4.35222e-10 0.0080723 
-0.00309898 0.00116885 0.000524224 -0.00397789 0.00173334 0.000521523 2382 2516 0 0.0353218 -0.017991 -0.00120434 7.71219e-11 -0.00700875 
-0.00217189 0.000684046 0.000523099 -0.00163851 0.000948059 0.00138426 2327 378 0 -0.154767 -0.0677401 -0.356995 9.42306e-10 0.00604128 
-0.000970269 0.000885981 0.000523966 -0.0014719 0.00180627 0.000523822 178 513 0 -0.0100046 -0.0790089 0.0275766 3.33806e-10 -0.00181012 
-0.000970269 0.000885981 0.000523966 -0.000331013 0.00171677 0.000524078 178 654 0 -0.0640946 -0.134761 -0.00558466 4.56149e-10 0.000810357 
-0.000970269 0.000885981 0.000523966 -0.000779145 0.000349357 0.0014036 178 2138 0 -0.00497725 0.135269 -0.198333 6.61639e-10 -0.00187883 
-0.0094962 0.00168579 0.000503601 -0.00887669 0.00248355 0.000546982 628 1161 0 -0.0157495 -0.0263318 -0.00620289 1.76643e-10 0.0250854 
-0.0094962 0.00168579 0.000503601 -0.00949632 0.00208124 0.00143023 628 1350 0 0.00325787 -0.0338985 -0.161469 6.3969e-10 -0.00422869 
-0.0094962 0.00168579 0.000503601 -0.00864321 0.0016143 0.00104171 628 786 0 -0.126427 0.0360186 -0.106372 5.52231e-10 0.0492033 
-0.00777748 0.00154794 0.000510605 -0.00864321 0.0016143 0.00104171 1700 786 0 0.121056 0.00384516 -0.0657325 4.25581e-10 -0.0448705 
-0.00695614 0.00243165 0.000513686 -0.00651682 0.00336229 0.000517596 384 1403 0 -0.0256535 -0.0572474 -0.00758272 4.08839e-10 0.0161174 
-0.00695614 0.00243165 0.000513686 -0.00592824 0.0025052 0.000516325 384 449 0 -0.12598 0.00819 -0.0185339 3.66577e-10 0.032222 
-0.00695614 0.00243165 0.000513686 -0.00764497 0.00224354 0.0012486 384 1248 0 0.161957 0.0514033 -0.212507 7.16516e-10 -0.0514908 
-0.00493177 0.00214999 0.000518921 -0.00397789 0.00173334 0.000521523 469 2516 0 -0.0695742 0.0234916 0.000421379 1.19681e-10 0.0166969 
-0.00493177 0.00214999 0.000518921 -0.00458906 0.0031302 0.000519821 469 1002 0 -0.236449 -0.637394 0.0113065 1.34907e-09 0.0147824 
-0.00397789 0.00173334 0.000521523 -0.00410525 0.00251102 0.00120426 2516 443 0 0.00748136 -0.102111 -0.0897758 4.83876e-10 -0.00577414 
-0.0024898 0.00205274 0.000523046 -0.0014719 0.00180627 0.000523822 2566 513 0 -0.129906 -0.0106077 -0.105307 4.3056e-10 0.0080651 
-0.0024898 0.00205274 0.000523046 -0.00185166 0.0028833 0.000523922 2566 426 0 -0.0144353 -0.0367146 -0.0247295 2.03369e-10 0.00509665 
-0.0024898 0.00205274 0.000523046 -0.00324257 0.00192605 0.00123726 2566 450 0 0.262955 0.0219381 -0.167653 7.56624e-10 -0.0197856 
-0.0024898 0.00205274 0.000523046 -0.00217233 0.00185758 0.00150113 2566 1556 0 -0.105789 0.0127782 -0.164203 6.32266e-10 0.00154528 
-0.0014719 0.00180627 0.000523822 -0.000832899 0.00263702 0.000523879 513 1500 0 -0.037919 -0.0737507 -0.00300015 3.93467e-10 0.00176128 
-0.0014719 0.00180627 0.000523822 -0.00096657 0.0017502 0.00144001 513 2721 0 -0.102837 0.0325588 -0.183355 6.35109e-10 0.000383622 
-0.000331013 0.00171677 0.000524078 -0.000832899 0.00263702 0.000523879 654 1500 0 0.0700279 -0.163948 0.0236545 5.30932e-10 -0.00111118 
-0.000331013 0.00171677 0.000524078 -0.000144145 0.00238631 0.00130859 654 2205 0 -0.0438072 -0.0731338 -0.119997 5.02807e-10 -0.00192047 
-0.00887669 0.00248355 0.000546982 -0.00870243 0.00339052 0.000968368 1161 358 0 -0.000430074 0.0229542 0.0091898 1.04903e-10 0.00771313 
-0.00887669 0.00248355 0.000546982 -0.007942 0.00288308 0.000510061 1161 2563 0 0.0074443 0.00464866 -0.001421 2.50278e-11 0.010068 
-0.00870243 0.00339052 0.000968368 -0.00797147 0.00393061 0.000509769 358 758 0 0.170196 -0.207388 0.066502 4.99434e-11 0.00736989 
-0.007942 0.00288308 0.000510061 -0.00764497 0.00224354 0.0012486 2563 1248 0 0.0134463 -0.0246315 0.0417124 1.7085e-10 0.00749237 
-0.007942 0.00288308 0.000510061 -0.00780982 0.0032707 0.00144464 2563 777 0 -0.0506382 -0.0781065 -0.39707 5.34068e-10 0.00551062 
-0.00651682 0.00336229 0.000517596 -0.00592254 0.00313986 0.00133176 1403 2275 0 -0.035046 0.0215256 -0.039025 1.61895e-10 0.0139165 
-0.00592824 0.0025052 0.000516325 -0.00592254 0.00313986 0.00133176 449 2275 0 -0.0322001 -0.129493 -0.0529204 6.41903e-10 0.00526752 
-0.00458906 0.0031302 0.000519821 -0.00427622 0.00412191 0.00052017 1002 136 0 -0.152391 -0.492091 0.0031493 9.80933e-10 0.0125471 
-0.00332548 0.00268221 0.00052192 -0.00324257 0.00192605 0.00123726 2667 450 0 -0.0446085 0.265467 -0.306849 9.73718e-10 -0.00151685 
-0.00332548 0.00268221 0.00052192 -0.00369112 0.00346332 0.00111005 2667 2475 0 0.0186365 -0.14798 -0.0762036 7.02956e-10 -0.00903437 
-0.00185166 0.0028833 0.000523922 -0.000832899 0.00263702 0.000523879 426 1500 0 -0.0201549 0.068839 -0.00584406 2.56125e-10 0.00192179 
-0.00185166 0.0028833 0.000523922 -0.00191236 0.0036018 0.0012842 426 46 0 0.00686946 -0.0502778 -0.0360967 2.98978e-10 -0.000718126 
-0.000832899 0.00263702 0.000523879 -0.000675138 0.0032895 0.00132852 1500 2402 0 -0.0342933 -0.200459 -0.240684 8.06665e-10 -0.0013963 
-0.00949695 0.00381312 0.000502685 -0.00949647 0.00409128 0.00146944 1397 2002 0 -0.00059227 -0.0457439 -0.252408 7.16774e-10 0.00551072 
-0.00600711 0.00453372 0.000567041 -0.00504778 0.00468619 0.000929261 263 1138 0 -0.0630935 0.000389553 -0.0152139 2.09774e-10 0.0196182 
-0.00427622 0.00412191 0.00052017 -0.00504778 0.00468619 0.000929261 136 1138 0 0.0632944 -0.0822247 -0.0091335 4.74215e-10 -0.014975 
-0.00427622 0.00412191 0.00052017 -0.00364218 0.00494899 0.000522068 136 2679 0 -0.253354 -0.325751 0.00837729 9.06163e-10 0.0306701 
-0.00427622 0.00412191 0.00052017 -0.00464581 0.00374489 0.00141647 136 1380 0 -0.230369 -0.0985496 -0.417705 7.70195e-10 -0.00709465 
-0.00307743 0.00407015 0.000522503 -0.00205865 0.00430626 0.000523087 963 632 0 -0.301706 -0.111924 0.0350434 9.08584e-10 0.0177711 
-0.00307743 0.00407015 0.000522503 -0.00364218 0.00494899 0.000522068 963 2679 0 0.0306674 -0.0604456 0.00155131 3.21403e-10 -0.00644218 
-0.00307743 0.00407015 0.000522503 -0.00369112 0.00346332 0.00111005 963 2475 0 0.242357 0.173813 -0.145783 8.8631e-10 -0.0153741 
-0.00205865 0.00430626 0.000523087 -0.00119838 0.00370895 0.000523681 632 1018 0 -0.147844 0.115343 -0.0360754 6.01519e-10 0.00633322 
-0.00205865 0.00430626 0.000523087 -0.00262443 0.00518676 0.000523113 632 2253 0 0.0736912 -0.128944 0.0401353 5.25573e-10 -0.0048948 
-0.00205865 0.00430626 0.000523087 -0.00191236 0.0036018 0.0012842 632 46 0 -0.0194349 0.050581 -0.0814201 4.13496e-10 0.00450035 
-0.00205865 0.00430626 0.000523087 -0.00137492 0.00458236 0.00126638 632 1119 0 -0.288489 -0.0958784 -0.36738 1.06615e-09 0.00796817 
-0.00119838 0.00370895 0.000523681 -0.000675138 0.0032895 0.00132852 1018 2402 0 -0.207234 0.14745 -0.314116 9.35996e-10 0.00231111 
-0.000124794 0.0036775 0.000524548 -0.00058606 0.00461971 0.000524839 885 1421 0 0.0213752 -0.0336756 -0.00661339 1.8412e-10 -0.000204037 
-0.000124794 0.0036775 0.000524548 -0.000675138 0.0032895 0.00132852 885 2402 0 0.00373195 0.00120963 -0.00444001 5.38166e-11 -0.00208781 
-0.00949613 0.00536941 0.000505778 -0.00852198 0.00564378 0.000508461 76 1503 0 0.00054381 0.000385552 -0.000442304 1.3093e-12 0.00315591 
-0.00885241 0.00459151 0.000505975 -0.00850628 0.00465146 0.00145555 508 1889 0 -0.0297076 -0.0442351 -0.0781478 3.34893e-10 0.0120486 