ITEM: TIMESTEP
1535000
ITEM: NUMBER OF ATOMS
11000
ITEM: BOX BOUNDS mm pp mm
-0.01 0.01
-0.0075 0.0075
0 0.03
ITEM: ATOMS id type type x y z ix iy iz vx vy vz fx fy fz omegax omegay omegaz radius f_Temp[0] f_heatSource[0] f_heatFlux[0] c_coord[0] 
1360 1 1 -0.00950543 -0.00672844 0.000476151 0 0 0 -8.42356e-06 -4.38041e-06 -5.53305e-06 2.53587e-05 2.12345e-05 2.17986e-05 -0.0184623 0.00238523 0.0479636 0.000500324 616.264 0.00418867 -0.00418841 3 
1101 1 1 -0.00832222 -0.00736148 0.000458117 0 0 0 -6.91891e-05 -4.56304e-05 -2.20852e-05 0.000150523 8.18395e-06 3.15052e-05 0.0423836 -0.101422 0.142158 0.000500777 676.536 0.00418867 -0.00418786 3 
2577 1 1 -0.00759017 -0.00679078 0.000699401 0 0 0 -6.49319e-05 -9.43308e-05 -6.45447e-05 0.000144055 0.000172633 -1.05923e-05 0.113015 0.235043 -0.152216 0.000500952 699.893 0.00418867 -0.00418681 5 
2282 1 1 -0.00603136 -0.00688589 0.000456542 0 0 0 6.99165e-05 -8.11793e-05 -2.9738e-05 0.000116566 0.000166544 -4.81762e-05 0.0454752 0.0595495 0.18799 0.000501313 748.046 0.00418867 -0.00418857 4 
1904 1 1 -0.00483209 -0.00686617 0.000486298 0 0 0 -2.39193e-05 -8.09948e-05 -4.82246e-05 0.000303063 0.000112008 3.21773e-05 0.130035 -0.11043 -0.579894 0.000501525 776.375 0.00418867 -0.00418922 2 
792 1 1 -0.00407363 -0.00749004 0.000484876 0 1 0 -0.000168536 -0.000188977 1.65716e-05 0.000401408 0.000232796 -2.72359e-05 0.376905 -0.430337 0.18873 0.000501622 789.27 0.00418867 -0.00419233 4 
2537 1 1 -0.00365131 -0.00664738 0.000763043 0 0 0 -0.000172406 -0.000200672 0.000164333 0.000285299 -2.48523e-05 0.00042915 -0.107746 0.34849 -0.112326 0.000501709 800.871 0.00418867 -0.00419369 4 
1266 1 1 -0.0027952 -0.00701188 0.000466656 0 0 0 -0.000161966 -6.27325e-05 -3.39862e-05 0.000118671 2.06277e-05 0.000135474 0.02894 0.077181 0.313528 0.000501779 810.245 0.00418867 -0.00419128 4 
1738 1 1 -0.0018276 -0.00711901 0.000480546 0 0 0 -0.000383064 3.0514e-05 0.000131666 4.18378e-05 -0.000190579 -1.93711e-05 -0.100564 -0.790189 -0.0956043 0.000501852 819.882 0.00418867 -0.00418755 4 
1115 1 1 -9.4219e-05 -0.00741163 0.000476724 0 0 0 -0.000176717 -0.000276766 0.000520235 8.49461e-06 -0.000135313 -9.28209e-05 0.407774 0.229642 -0.178127 0.00050191 827.687 0.00418867 -0.00409989 5 
1338 1 1 -0.000523453 -0.00653459 0.000488015 0 0 0 -0.00039431 0.000373286 0.000477471 -1.75328e-05 -0.000242425 -2.94711e-05 -0.656233 -0.544835 -0.0513851 0.000501909 827.546 0.00418867 -0.00415414 3 
599 1 1 -0.000965077 -0.007312 0.0008823 0 0 0 -0.000837995 8.05321e-05 0.000885741 0.000134311 -0.000326988 -0.000134336 -0.0525318 -0.389175 -0.0965745 0.000501889 824.873 0.00418867 -0.00417754 6 
1295 1 1 -0.00952596 -0.00571499 0.000469823 0 0 0 -7.19937e-06 -3.26644e-06 -2.19029e-06 2.78995e-05 -9.66334e-06 1.44801e-05 0.00474324 0.00310531 0.00422314 0.000500303 613.414 0.00418867 -0.00418823 3 
620 1 1 -0.00857297 -0.00639082 0.000487654 0 0 0 -4.1706e-05 -1.61241e-05 -3.1444e-06 0.000121572 -9.95011e-06 2.89106e-05 0.0323435 -0.0739979 -0.0425108 0.000500639 658.189 0.00418867 -0.00418777 3 
1012 1 1 -0.00765264 -0.00585707 0.000475246 0 0 0 -3.14991e-05 -3.57321e-05 -7.02962e-06 6.51207e-05 0.000104822 -1.32258e-05 0.0485942 -0.0450215 -0.0216816 0.00050094 698.379 0.00418867 -0.00418677 4 
1283 1 1 -0.0068054 -0.00596333 0.000942022 0 0 0 -3.36316e-05 -8.51209e-05 -5.21843e-05 0.000149298 0.000255845 -8.44528e-05 0.13809 0.0769025 0.0321737 0.000501124 722.895 0.00418867 -0.00418561 6 
2369 1 1 -0.00597991 -0.00589731 0.000457334 0 0 0 -5.91011e-06 -3.08589e-05 -3.18941e-05 0.000186882 0.000105015 -6.68832e-05 0.0166912 -0.0504087 -0.0118479 0.000501323 749.408 0.00418867 -0.00418675 6 
574 1 1 -0.00500319 -0.00571439 0.00048431 0 0 0 4.56122e-05 -3.70153e-05 -1.60037e-05 3.60698e-05 7.18006e-06 3.53277e-05 0.0444781 0.108201 0.0440024 0.000501474 769.475 0.00418867 -0.00418813 3 
219 1 1 -0.00268095 -0.00603813 0.000459908 0 0 0 -0.000114528 -0.000109814 1.91656e-05 -3.63459e-05 -0.000199107 0.000112838 0.152502 -0.198459 -0.300895 0.000501802 813.278 0.00418867 -0.00419146 5 
1971 1 1 -0.00150854 -0.00620005 0.000451691 0 0 0 -0.000145908 -5.91261e-05 0.000153666 -4.6023e-05 -0.000166762 3.6145e-05 0.0497878 -0.259352 -0.170047 0.00050187 822.281 0.00418867 -0.0041918 5 
1180 1 1 -0.000750118 -0.00559682 0.000479187 0 0 0 -0.000175297 8.67676e-05 0.000103938 4.23637e-06 -0.000200754 -1.0061e-05 -0.00804566 -0.109323 -0.0736095 0.000501898 826.119 0.00418867 -0.00418152 6 
1145 1 1 -0.00865302 -0.005277 0.000476117 0 0 0 -2.2906e-05 -2.20181e-06 3.17458e-06 4.42861e-05 -6.82581e-06 1.23438e-05 0.00979086 -0.0339337 -0.011037 0.000500643 658.792 0.00418867 -0.00418761 4 
218 1 1 -0.00773834 -0.0049001 0.000455803 0 0 0 -1.43405e-05 -3.19343e-06 6.18683e-06 4.05283e-05 7.34192e-06 -1.03487e-05 -0.0128525 -0.0149313 0.00558136 0.00050086 687.675 0.00418867 -0.00418723 5 
2561 1 1 -0.00582943 -0.00493221 0.000487419 0 0 0 1.66082e-05 -6.93879e-06 -1.05152e-05 9.13139e-05 4.06455e-05 -5.0397e-05 0.00647479 0.033456 -0.0449845 0.00050135 752.969 0.00418867 -0.00418675 5 
1998 1 1 -0.00405455 -0.00524212 0.000447642 0 0 0 3.21368e-05 -0.000103636 4.40639e-06 6.82803e-05 -0.000288646 0.000106209 0.115049 0.0486801 0.098995 0.000501656 793.751 0.00418867 -0.00418953 5 
1657 1 1 -0.00488788 -0.00472502 0.000484139 0 0 0 5.49673e-06 -7.22327e-05 7.60556e-06 5.7007e-05 -0.000179181 2.94398e-05 0.0704082 -0.0235344 -0.0498287 0.000501543 778.669 0.00418867 -0.00418768 6 
323 1 1 -0.0030922 -0.00515492 0.000464779 0 0 0 8.33367e-06 -9.19711e-05 2.44471e-05 -4.00454e-05 -0.000240496 9.1703e-05 0.16609 -0.057926 -0.0254987 0.000501754 806.807 0.00418867 -0.00418974 4 
615 1 1 -0.0019907 -0.00533764 0.000483983 0 0 0 -3.77302e-05 -0.000125036 6.35194e-05 -4.39718e-05 -0.000215043 7.4244e-05 0.0945431 0.0472027 0.109646 0.000501853 820.015 0.00418867 -0.0041897 5 
1959 1 1 -0.00121096 -0.00473877 0.000458559 0 0 0 -6.35847e-05 -5.2069e-05 6.14942e-05 6.06725e-05 -0.000196344 4.83354e-05 0.145726 -0.0424553 -0.00766778 0.000501882 823.942 0.00418867 -0.00418597 5 
2725 1 1 -0.00951239 -0.00445992 0.000476144 0 0 0 -6.63688e-06 1.08899e-05 2.31681e-06 1.20224e-05 -2.4432e-05 1.02654e-05 -0.0242548 -0.00645388 0.0202371 0.000500332 617.209 0.00418867 -0.00418796 4 
413 1 1 -0.00853514 -0.00431501 0.000474003 0 0 0 -1.20979e-05 1.75439e-05 9.11253e-07 1.36401e-05 -1.27736e-05 1.36477e-05 -0.0277891 -0.0160263 -0.0108454 0.000500637 657.882 0.00418867 -0.00418773 4 
1175 1 1 -0.00750644 -0.003955 0.000478467 0 0 0 -2.1542e-05 3.56065e-06 8.17248e-06 -7.16035e-06 -5.00973e-05 1.5846e-05 0.0105196 -0.0234818 -0.0345583 0.000500982 703.951 0.00418867 -0.00418723 3 
1378 1 1 -0.00667702 -0.00446554 0.000447318 0 0 0 -1.15921e-05 -1.33603e-05 -5.24151e-06 3.07875e-05 2.2674e-05 -3.89814e-05 0.0419241 -0.0226859 0.0724624 0.000501188 731.424 0.00418867 -0.00418668 5 
1387 1 1 -0.00662501 -0.00363911 0.000925887 0 0 0 -5.76014e-05 -8.16196e-06 1.15542e-05 -5.14476e-05 -8.07749e-05 5.21363e-06 -0.00783318 -0.000295521 -0.0311456 0.000501226 736.404 0.00418867 -0.00418689 7 
1741 1 1 -0.00578951 -0.00376935 0.000460369 0 0 0 -3.49454e-05 -5.60009e-05 5.46316e-06 -2.88052e-05 -0.000121586 1.81939e-05 0.110977 -0.0702985 -0.11878 0.000501386 757.783 0.00418867 -0.00418691 3 
2011 1 1 -0.00472791 -0.00355223 0.000478953 0 0 0 -5.65852e-05 -5.49271e-05 6.69711e-06 -4.98653e-05 -0.000130521 3.5712e-05 -0.00280807 -0.0612742 0.051138 0.000501584 784.204 0.00418867 -0.00418634 4 
1823 1 1 -0.00404061 -0.00425608 0.000463181 0 0 0 -1.77085e-05 -0.000115516 3.49765e-05 2.81727e-06 -0.000218451 0.00010175 0.122978 -0.0336961 -0.0432144 0.000501654 793.59 0.00418867 -0.00418731 6 
1512 1 1 -0.00331543 -0.00364976 0.000684625 0 0 0 -8.09485e-05 -0.000186254 3.61486e-05 -3.47498e-05 -0.000257161 9.88759e-05 -0.00669159 0.110926 0.130668 0.000501722 802.623 0.00418867 -0.00418535 6 
2717 1 1 -0.00246597 -0.00406946 0.000466096 0 0 0 -1.43565e-05 -0.000106957 4.21553e-05 3.03026e-05 -0.00017918 6.63477e-05 0.183679 -0.102937 0.0281417 0.000501797 812.657 0.00418867 -0.00418672 3 
2319 1 1 -0.000208054 -0.00428905 0.000451754 0 0 0 -1.4109e-05 -0.000104879 6.16722e-05 7.44279e-05 -0.000140227 4.15579e-05 0.157392 0.0242797 0.0730941 0.000501898 826.05 0.00418867 -0.00418589 5 
2212 1 1 -0.00949916 -0.00345916 0.000501882 0 0 0 -8.91315e-06 -1.27087e-05 -2.4317e-05 -1.36505e-05 4.97217e-05 2.47042e-05 -0.0554646 0.0233164 -0.0101977 0.000500852 686.629 0.00418867 -0.00418992 2 
616 1 1 -0.00859262 -0.00303396 0.000478478 0 0 0 -1.8608e-05 2.51347e-05 2.54393e-06 -9.97915e-06 -1.53052e-05 8.55701e-06 -0.0359307 -0.010826 -0.0214125 0.000500735 671.01 0.00418867 -0.00418793 5 
2278 1 1 -0.00685691 -0.00275514 0.000478988 0 0 0 -5.05758e-05 1.61035e-06 1.18104e-06 -8.48919e-05 -7.79326e-05 -7.52617e-06 0.00640991 -0.0375734 -0.135211 0.000501162 727.949 0.00418867 -0.00418711 3 
1466 1 1 -0.00587473 -0.00266223 0.000476457 0 0 0 -5.28349e-05 -3.77119e-05 -5.31217e-06 -5.91971e-05 -0.000110092 3.83711e-05 0.0685967 -0.0252479 0.0714025 0.000501365 755.034 0.00418867 -0.0041864 5 
2724 1 1 -0.00489149 -0.00258522 0.000464101 0 0 0 -6.19429e-05 -9.59663e-06 -3.84619e-06 -4.27539e-05 -5.183e-05 6.64945e-05 0.0248763 -0.0801774 -0.0223783 0.000501529 776.911 0.00418867 -0.0041856 5 
1241 1 1 -0.00396538 -0.00291979 0.000479804 0 0 0 -5.43956e-05 -0.000105385 3.97126e-05 -2.37796e-05 -0.000130365 9.67164e-05 0.174218 -0.093036 -0.192402 0.00050165 793.002 0.00418867 -0.00418514 4 
403 1 1 -0.00256619 -0.00307067 0.000485501 0 0 0 -4.00873e-05 -0.000238727 7.21837e-07 5.52279e-05 -0.000188217 9.85613e-05 0.308489 0.0405173 -0.452013 0.000501788 811.402 0.00418867 -0.00418222 3 
536 1 1 -0.00160506 -0.00300456 0.000444349 0 0 0 -3.17613e-05 -0.00033151 3.77714e-05 0.000159181 6.84847e-05 0.000211379 0.510574 -0.133206 0.295113 0.000501859 820.919 0.00418867 -0.00418094 5 
1281 1 1 -0.00065692 -0.00327538 0.000482116 0 0 0 4.05961e-05 -0.000164441 0.000104002 3.53863e-05 0.000121661 0.000156825 0.0644313 -0.0433805 -0.0979045 0.000501895 825.63 0.00418867 -0.00418267 4 
2621 1 1 -0.00952969 -0.00158605 0.000470951 0 0 0 -9.95584e-06 1.86827e-05 -5.99822e-06 -2.25932e-05 -2.66523e-06 -7.52846e-06 -0.0401077 -0.00288966 0.0260042 0.000500346 619.2 0.00418867 -0.00418838 3 
1699 1 1 -0.00908881 -0.00231165 0.000911667 0 0 0 -2.05198e-05 4.34389e-05 5.20013e-06 -1.17862e-05 -3.23793e-05 2.11612e-05 0.0148456 -0.0407834 0.0032715 0.000500548 646.098 0.00418867 -0.00418817 4 
2259 1 1 -0.00795998 -0.00154401 0.000856805 0 0 0 -5.37926e-05 3.50237e-05 5.23595e-06 -0.000123585 -0.000101732 9.89717e-06 0.0312722 -0.0382999 0.00644782 0.000500814 681.581 0.00418867 -0.00418781 5 
1246 1 1 -0.00780489 -0.00242746 0.000461155 0 0 0 -2.2735e-05 1.43866e-05 -2.29177e-06 -3.29359e-05 -8.94113e-05 -9.03802e-06 -0.0344147 -0.0428046 -0.00107823 0.000500895 692.371 0.00418867 -0.00418767 5 
1853 1 1 -0.00706476 -0.00179556 0.000431183 0 0 0 -3.44433e-05 2.84326e-05 9.35068e-07 -7.50593e-05 -2.51164e-05 2.14368e-05 -0.0368045 -0.0759124 0.0765584 0.000501029 710.208 0.00418867 -0.00418742 3 
112 1 1 -0.00608499 -0.00157152 0.000484212 0 0 0 -7.75595e-05 -1.35255e-05 -4.51631e-06 -8.88794e-05 -6.909e-05 1.93069e-05 -0.031751 -0.12133 0.207313 0.000501336 751.12 0.00418867 -0.0041859 3 
2470 1 1 -0.00384126 -0.00163534 0.000431083 0 0 0 -0.000291864 -0.000169241 1.76148e-05 -3.2263e-06 -5.61645e-06 0.000203645 0.357691 -0.525852 -0.25183 0.000501688 798.099 0.00418867 -0.00418109 3 
1863 1 1 -0.00314739 -0.00229156 0.000455874 0 0 0 -0.000120666 -0.000160704 8.21162e-05 0.000106952 6.40509e-06 0.000191912 0.268305 -0.262051 0.514137 0.000501749 806.163 0.00418867 -0.00418161 4 
1770 1 1 -0.00211338 -0.0021466 0.00048539 0 0 0 -0.000116429 -0.000231221 9.44996e-05 0.000386588 0.00052489 0.000401774 0.265879 -0.186897 -0.145466 0.000501848 819.381 0.00418867 -0.00417712 4 
2727 1 1 -0.0012556 -0.00227625 0.000960456 0 0 0 4.09688e-05 -0.000560578 0.000307593 -2.31478e-05 0.00128165 0.000209154 -0.0747935 -0.103434 -0.596605 0.000501875 823.055 0.00418867 -0.00417967 7 
2195 1 1 -0.000817962 -0.00159641 0.000446991 0 0 0 0.000148634 -0.00029609 0.000192932 -0.000918357 0.00210207 0.000445266 0.603566 0.316442 0.883349 0.000501893 825.441 0.00418867 -0.00417871 5 
6561 1 1 -0.000262912 -0.00238748 0.000487771 0 0 0 0.000269688 -0.000114605 5.32799e-05 -0.000399754 0.000714093 0.000470313 -0.20645 0.0104136 -0.18224 0.000501903 826.709 0.00418867 -0.00418127 4 
2166 1 1 -0.00953828 -0.000606851 0.000577733 0 0 0 -2.07429e-05 1.49058e-05 -1.68049e-05 -3.88073e-05 -3.81071e-06 -3.40508e-05 0.0215462 0.0458487 0.0178998 0.00050033 617.03 0.00418867 -0.00418841 4 
2478 1 1 -0.00870035 -0.00107568 0.000441782 0 0 0 -2.71083e-05 2.25051e-05 -1.14032e-05 -5.6204e-05 -3.08081e-05 -2.91589e-05 -0.0466687 -0.0443916 -5.28939e-05 0.000500583 650.797 0.00418867 -0.00418815 6 
2421 1 1 -0.00788101 -0.000534618 0.000448089 0 0 0 -3.54621e-05 1.92109e-05 1.99177e-06 -6.26377e-05 -3.11699e-05 5.33504e-07 -0.0377601 -0.0694045 0.00648043 0.000500738 671.459 0.00418867 -0.00418795 4 
2518 1 1 -0.00677444 -0.000837391 0.000506602 0 0 0 0.00236146 -0.000679202 -0.00447691 -6.20185e-08 -5.62787e-06 -3.53927e-07 3.47504 41.1296 1.67001 0.000502991 971.864 0.00418867 -0.00412674 1 
143 1 1 -0.00551137 -0.000769928 0.000473512 0 0 0 -0.000148089 3.42759e-05 -3.33959e-06 -0.000104833 5.86408e-05 5.33915e-05 -0.0745273 -0.11886 -0.0231974 0.000501414 761.549 0.00418867 -0.00418485 5 
74 1 1 -0.00454005 -0.000628852 0.000467081 0 0 0 -0.000153657 -3.66793e-05 6.30311e-05 -2.85256e-05 5.55782e-05 0.000151875 0.097299 -0.258776 -0.0531383 0.000501533 777.395 0.00418867 -0.0041834 4 
1293 1 1 -0.00320276 -0.00115126 0.000988904 0 0 0 -0.000346465 -0.000153361 0.000276147 0.000431456 0.000400014 0.000322639 -0.188299 0.108439 0.0682368 0.000501742 805.251 0.00418867 -0.00417932 7 
115 1 1 -0.00224438 -0.00119784 0.000752909 0 0 0 -0.000214805 -2.91791e-05 0.000460926 0.000516155 0.00150439 0.000494141 0.471013 -0.509877 0.181021 0.000501831 817.135 0.00418867 -0.00417632 5 
197 1 1 -0.00131572 -0.000865273 0.000808601 0 0 0 0.000292986 -0.000246724 0.000762766 -0.00102637 0.00398327 -0.00105528 -0.11982 0.493536 -0.948614 0.000501877 823.316 0.00418867 -0.00417968 5 
5605 1 1 -7.04575e-05 -0.000943035 0.000491033 0 0 0 0.000552767 0.00018575 0.000159699 -0.00105957 0.000406377 0.000106121 -0.236746 0.670691 -1.7536 0.000501912 827.994 0.00418867 -0.00418022 4 
2321 1 1 -0.00953722 0.000442804 0.000468807 0 0 0 -1.82594e-05 1.04307e-05 -6.59158e-06 -2.57406e-05 -2.92912e-06 -1.84388e-05 -0.0155292 -0.00188667 0.0210722 0.000500328 616.694 0.00418867 -0.00418843 3 
754 1 1 -0.00872331 -8.93319e-05 0.000579024 0 0 0 -3.8928e-05 2.20806e-05 -2.06727e-05 -6.63969e-05 -2.341e-05 -4.22183e-05 0.0323522 -0.00983096 0.0106363 0.000500549 646.2 0.00418867 -0.00418823 6 
1880 1 1 -0.00786397 0.000442278 0.000452924 0 0 0 -5.91324e-05 2.07106e-05 -1.06351e-05 -8.53034e-05 -2.37641e-05 -7.4492e-06 0.00669703 -0.0720917 0.000318575 0.000500839 684.876 0.00418867 -0.00418774 5 
783 1 1 -0.00693282 0.000153342 0.000468016 0 0 0 -0.000105183 1.77001e-05 1.51145e-05 -0.000123459 -1.17259e-05 3.37029e-05 -0.0210238 -0.100581 -0.0584902 0.00050107 715.678 0.00418867 -0.00418681 4 
233 1 1 -0.00606912 -6.58434e-05 0.000826782 0 0 0 -0.00021672 5.01854e-05 2.44275e-05 -0.00014483 8.63542e-05 6.99051e-05 0.059292 0.0210203 0.084804 0.000501308 747.448 0.00418867 -0.00418563 5 
129 1 1 -0.00510735 8.50993e-05 0.000805614 0 0 0 -0.000258836 5.31247e-05 5.66076e-05 4.47516e-05 0.000174818 0.00014027 0.00612762 -0.0471726 -0.116262 0.000501484 770.891 0.00418867 -0.00418433 8 
2061 1 1 -0.00421664 0.000307757 0.000474345 0 0 0 -0.000231193 9.85058e-05 0.000109887 0.000569376 0.00011373 0.000203481 -0.233221 -0.329944 0.266922 0.000501603 786.672 0.00418867 -0.00418269 5 
1496 1 1 -0.00295125 -0.000365267 0.000466163 0 0 0 -0.00013794 4.06265e-05 0.000172843 0.000658367 0.000152594 0.000266454 0.0365288 -0.266597 -0.140073 0.000501748 806.046 0.00418867 -0.00417872 4 
2327 1 1 -0.00237713 0.000442416 0.00045961 0 0 0 -9.6984e-05 0.000465978 0.000346514 0.00210463 -0.00209842 -0.000163147 -0.365804 -0.0207551 0.243939 0.000501792 811.94 0.00418867 -0.00418215 6 
109 1 1 -0.00152538 -1.48972e-05 0.000431859 0 0 0 0.000339769 0.000364479 0.000377999 -4.22024e-05 -0.0011053 -9.15478e-05 -0.585713 0.532361 0.0483571 0.000501869 822.176 0.00418867 -0.0041887 5 
1095 1 1 -0.0005654 -0.000107877 0.00067519 0 0 0 0.00121522 0.000823525 0.000495523 -0.00315815 -0.00146376 -0.00105329 0.243574 0.016745 0.893371 0.000501902 826.644 0.00418867 -0.00418474 5 
2262 1 1 -0.0086893 0.000893337 0.000482378 0 0 0 -3.60617e-05 1.86156e-05 -1.2589e-05 -4.96547e-05 -3.4054e-06 -1.68055e-05 0.000814344 -0.0104289 -0.0138689 0.000500595 652.356 0.00418867 -0.00418821 5 
1456 1 1 -0.00761869 0.00139679 0.000481989 0 0 0 -4.42922e-05 3.7427e-05 -1.12667e-05 -1.90603e-05 5.65552e-06 1.24102e-06 -0.0656434 -0.0535721 0.0315843 0.000500882 690.601 0.00418867 -0.0041882 4 
2309 1 1 -0.00614954 0.00104768 0.000961844 0 0 0 -0.000229243 9.22979e-05 6.50605e-06 -0.000136751 0.000124383 6.96515e-05 -0.0338794 0.00577952 0.0940758 0.000501346 752.456 0.00418867 -0.00418662 5 
386 1 1 -0.00529457 0.000974851 0.00046554 0 0 0 -0.000139435 9.59681e-05 1.76994e-06 5.07969e-06 0.000116538 8.10836e-05 -0.107708 -0.191889 -0.00770213 0.000501475 769.699 0.00418867 -0.00418546 5 
2516 1 1 -0.0043523 0.00129011 0.000488252 0 0 0 -0.000105783 0.000135288 3.95693e-05 0.000206146 5.74662e-05 6.31532e-05 -0.088386 0.0320908 -0.143067 0.000501574 782.925 0.00418867 -0.00418518 6 
2382 1 1 -0.00331726 0.00069241 0.000475374 0 0 0 -0.000274405 0.000279853 0.000189351 0.00162388 -0.00052452 5.06081e-05 -0.437735 -0.23302 0.0526711 0.000501709 800.886 0.00418867 -0.00418184 5 
2566 1 1 -0.00245808 0.00143617 0.0004771 0 0 0 0.000142554 0.000544814 7.39301e-05 0.000634531 -0.000698851 -0.000139442 -0.808356 0.414389 -0.293017 0.000501803 813.336 0.00418867 -0.0041838 3 
178 1 1 -0.0014849 0.000986214 0.000514188 0 0 0 -0.00417235 0.000802463 0.00483527 9.57044e-05 0.000600027 -4.65932e-05 -18.386 -1.16332 -11.8538 0.000503448 1032.69 0.00418867 -0.00416902 1 
2022 1 1 -0.0002436 0.000804807 0.000458436 0 0 0 0.000166261 0.000632095 0.000387778 0.000551349 -0.00170864 -0.00198053 -0.625624 0.42706 0.691103 0.000501907 827.332 0.00418867 -0.00419278 6 
628 1 1 -0.00911313 0.00172894 0.000433462 0 0 0 -2.36171e-05 1.27454e-05 -1.47795e-05 -2.25094e-05 1.30532e-07 -6.60201e-06 -0.0151092 -0.0306496 -0.000776462 0.000500508 640.734 0.00418867 -0.00418849 4 
786 1 1 -0.00834769 0.00181585 0.000989325 0 0 0 -5.06809e-05 2.5858e-05 -1.57916e-05 -3.48006e-05 -4.29583e-05 1.18678e-05 0.00352167 0.00323136 0.01705 0.000500705 666.993 0.00418867 -0.00418848 6 
1700 1 1 -0.00759146 0.0024399 0.000501163 0 0 0 -2.78323e-05 6.2476e-05 7.4389e-06 6.14158e-06 1.94995e-05 -2.82357e-05 -0.137284 -0.0155539 0.0807093 0.00050119 731.622 0.00418867 -0.0041892 2 
449 1 1 -0.00659109 0.00170331 0.000441202 0 0 0 -8.31261e-05 7.08208e-05 -1.98793e-05 -2.7296e-05 7.79029e-05 -1.18367e-06 -0.0698596 -0.160865 -0.286823 0.000501254 740.265 0.00418867 -0.00418768 3 
986 1 1 -0.0058754 0.00235495 0.000458618 0 0 0 5.80247e-07 5.3259e-05 -8.95829e-07 0.000109305 5.7615e-05 1.49308e-05 -0.0936472 0.0301853 0.138023 0.000501353 753.446 0.00418867 -0.00418832 5 
1906 1 1 -0.00492783 0.00210151 0.000472436 0 0 0 1.27505e-05 0.000111331 2.16573e-05 0.000132969 0.000109025 1.3078e-05 -0.0744454 -0.0686513 -0.0357752 0.000501513 774.725 0.00418867 -0.00418749 6 
1002 1 1 -0.00401441 0.00244458 0.000476529 0 0 0 0.000121448 0.000204038 -1.48207e-05 0.000154068 -3.8349e-05 -4.55799e-05 -0.21153 0.260266 0.139108 0.000501648 792.795 0.00418867 -0.00418855 5 
2667 1 1 -0.0034323 0.0016583 0.000463301 0 0 0 -7.19072e-05 0.000221649 3.81446e-05 0.000436093 -0.000466672 2.35437e-05 -0.0488379 -0.190195 -0.12235 0.000501693 798.797 0.00418867 -0.00418564 6 
513 1 1 -0.00145778 0.00212364 0.00047678 0 0 0 0.000771968 -1.57343e-05 0.000341469 -0.00301139 0.0020921 -0.00227042 -0.504081 0.418241 0.15851 0.00050187 822.383 0.00418867 -0.00419762 4 
654 1 1 -0.000733968 0.00157042 0.000839052 0 0 0 0.00044923 0.000106338 0.00047142 -0.000867825 0.00244216 -0.00318693 0.036791 0.0322581 -0.455146 0.000501898 826.069 0.00418867 -0.00419597 6 
1500 1 1 -0.000181534 0.00246886 0.000452227 0 0 0 6.15463e-05 7.33936e-05 1.75716e-05 2.58618e-05 0.000247219 -0.000588807 -0.0267814 0.175648 0.0200054 0.000501905 826.941 0.00418867 -0.00419832 4 
1161 1 1 -0.00915826 0.00338996 0.000461335 0 0 0 -1.21626e-05 1.93932e-06 -1.76099e-05 5.83678e-06 -3.70873e-06 1.46529e-05 0.00223255 -0.0161747 -0.00383013 0.000500458 634.021 0.00418867 -0.00418883 6 
1350 1 1 -0.00953034 0.00253868 0.000743374 0 0 0 -1.48145e-05 7.14836e-06 -1.94947e-05 -4.13104e-06 1.4326e-08 7.29174e-06 0.00686303 0.0346473 0.00627679 0.000500367 621.898 0.00418867 -0.00418869 4 
2530 1 1 -0.00858083 0.00259174 0.000462268 0 0 0 -2.13161e-05 7.09426e-06 -1.42813e-05 -3.99758e-06 -1.3902e-05 1.47486e-05 -0.00803238 -0.0362221 -0.0264326 0.0005006 652.968 0.00418867 -0.00418874 6 
2563 1 1 -0.00814219 0.00346733 0.000480493 0 0 0 -1.07712e-05 1.34787e-07 -1.80967e-05 2.99278e-05 -1.19462e-05 1.70072e-05 -0.0042316 -0.00520532 0.0128167 0.000500769 675.599 0.00418867 -0.00418894 4 
384 1 1 -0.00717892 0.00341714 0.000468145 0 0 0 -1.04856e-05 3.1194e-05 -2.84376e-05 6.70418e-05 3.93126e-05 -2.12665e-05 -0.0367704 0.014833 0.051932 0.000501042 711.912 0.00418867 -0.00418899 3 
990 1 1 -0.00669416 0.00268389 0.000875257 0 0 0 -4.21925e-05 8.11016e-05 -1.90207e-05 7.83519e-05 9.53995e-05 8.57989e-06 -0.0659266 -0.0338131 -0.0911525 0.000501205 733.697 0.00418867 -0.00418869 6 
1282 1 1 -0.00603682 0.00332251 0.000493482 0 0 0 -6.52144e-06 3.45602e-05 -3.07677e-05 0.000145009 3.04869e-05 -1.5239e-05 -0.0222421 0.00708784 -0.0738855 0.000501313 748.095 0.00418867 -0.0041891 4 
2218 1 1 -0.00504415 0.00314273 0.000474254 0 0 0 3.39202e-05 6.25577e-05 5.08171e-06 0.000176372 6.42372e-05 2.23447e-06 -0.0943221 0.0443107 0.0718343 0.000501518 775.464 0.00418867 -0.00418964 4 
1533 1 1 -0.00409627 0.00342341 0.00048342 0 0 0 6.11406e-05 8.48382e-05 -1.3557e-05 0.000185885 5.68981e-05 -0.000102801 -0.0045391 -0.0511545 -0.0846427 0.000501619 788.814 0.00418867 -0.00419034 5 
2203 1 1 -0.00303317 0.00256091 0.000538286 0 0 0 0.000519937 -0.000102068 8.37122e-05 -0.00027299 0.00020629 -0.000221569 -0.437681 -0.700425 -1.20089 0.000501745 805.645 0.00418867 -0.00419089 4 
426 1 1 -0.00210244 0.0028752 0.000454012 0 0 0 0.000479422 -0.000262694 6.04099e-05 -0.00122106 0.00148747 -0.000472404 0.0811814 0.634457 0.860349 0.000501824 816.157 0.00418867 -0.00419492 5 
1165 1 1 -0.00092176 0.00278806 0.00098385 0 0 0 0.000275322 1.82131e-05 -8.29186e-05 6.47745e-05 0.00137559 -0.000351303 -0.360973 -0.0690057 0.216528 0.000501879 823.59 0.00418867 -0.00419657 7 
1397 1 1 -0.00953153 0.00429336 0.000478927 0 0 0 -4.17551e-07 -3.91235e-06 -1.50572e-05 -7.54398e-07 -6.61798e-06 2.0709e-05 0.000315817 0.0255042 -0.0130387 0.000500357 620.571 0.00418867 -0.00418888 3 
358 1 1 -0.00869975 0.00409074 0.000951737 0 0 0 -1.44402e-05 -4.80063e-06 -3.22604e-05 2.16329e-05 -1.73945e-05 2.40928e-05 -0.0187679 -0.0111374 -0.00968723 0.000500575 649.703 0.00418867 -0.00418898 7 
1403 1 1 -0.0063042 0.00426155 0.000572562 0 0 0 1.5981e-05 3.10361e-05 -5.85523e-05 0.000190727 3.87366e-06 -3.89268e-06 -0.0108497 -0.0586086 0.0321887 0.00050126 740.986 0.00418867 -0.00418983 7 
263 1 1 -0.00535846 0.00407792 0.000477769 0 0 0 1.46485e-05 2.42114e-05 -1.77383e-05 0.000186466 2.72844e-05 3.00819e-05 -0.0176819 -0.0271143 -0.0555729 0.000501433 764.004 0.00418867 -0.00419003 5 
136 1 1 -0.00443074 0.00434947 0.000457046 0 0 0 3.16683e-05 2.06719e-05 -1.91313e-06 0.000230994 -9.45981e-06 -2.81376e-07 -0.00884903 0.0523508 0.0871963 0.000501568 782.046 0.00418867 -0.00419088 5 
963 1 1 -0.00315943 0.00370154 0.000424578 0 0 0 0.000196198 -0.000116333 -3.90149e-05 0.000105084 0.000173083 -9.72378e-05 0.308603 0.413213 -0.268294 0.000501728 803.462 0.00418867 -0.00419233 5 
632 1 1 -0.00235229 0.00426912 0.000484527 0 0 0 0.000136419 -0.000209516 -3.16631e-05 7.7504e-05 0.000321884 -0.000154328 0.353704 0.126687 0.296016 0.0005018 813.036 0.00418867 -0.00419375 5 
1018 1 1 -0.0015504 0.00369233 0.000446498 0 0 0 6.24043e-05 -0.0001049 -3.09828e-05 6.36357e-05 0.000619338 -0.000308721 0.0678256 0.0193469 -0.0796691 0.000501852 819.973 0.00418867 -0.00419525 5 
885 1 1 -0.000587314 0.00353221 0.000459377 0 0 0 -4.18981e-05 -0.000102384 -2.05417e-06 0.000433528 0.000708879 -0.000413426 0.165409 -0.0499614 0.215666 0.000501885 824.39 0.00418867 -0.00419649 4 
1421 1 1 -0.000872802 0.00447023 0.000456353 0 0 0 -1.21604e-05 -0.000167244 5.12044e-05 0.000114055 0.000151239 -0.000237381 0.18625 -0.0467643 -0.177882 0.000501882 823.873 0.00418867 -0.00419408 5 
758 1 1 -0.00804109 0.00457607 0.000427302 0 0 0 -8.0442e-06 -7.61659e-06 -2.39119e-05 3.3987e-05 -5.97751e-05 -1.17451e-05 0.0145419 -0.0160189 0.00767336 0.000500782 677.23 0.00418867 -0.00418928 5 
508 1 1 -0.00887695 0.00498605 0.000651101 0 0 0 -4.22488e-06 -1.84336e-05 -3.35932e-05 2.27169e-05 -1.57725e-05 2.74545e-05 0.00313437 0.00187831 0.00707623 0.000500554 646.875 0.00418867 -0.00418905 8 
2412 1 1 -0.00710036 0.00479365 0.000505337 0 0 0 -7.20529e-06 8.0183e-08 -5.94552e-05 9.45957e-05 -7.28648e-05 -2.08261e-05 -0.014672 0.0722651 0.00940712 0.000501028 710.079 0.00418867 -0.00418974 5 
1166 1 1 -0.00569053 0.00502448 0.000460308 0 0 0 7.02253e-06 2.22234e-06 -2.89911e-05 0.000165777 -5.32432e-05 -5.49254e-05 -0.00129915 0.00811013 -0.0243066 0.000501374 756.211 0.00418867 -0.00419053 4 
222 1 1 -0.00412061 0.00529745 0.000454887 0 0 0 3.28274e-05 -3.98558e-05 1.91575e-06 0.000217437 -3.53539e-05 3.92574e-05 0.034511 0.010274 -0.149856 0.000501629 790.194 0.00418867 -0.00419168 5 
2679 1 1 -0.00341228 0.00462963 0.000479015 0 0 0 7.26608e-05 -3.62276e-05 3.97905e-05 0.000170829 1.99709e-05 -5.8888e-05 -0.124111 -0.00735608 0.257828 0.000501704 800.262 0.00418867 -0.00419215 4 
2253 1 1 -0.00263493 0.00520543 0.000488249 0 0 0 1.77865e-05 -8.9269e-05 7.21593e-05 0.000116611 -8.05632e-06 -6.22345e-05 0.0321417 -0.0943094 -0.180131 0.00050177 808.95 0.00418867 -0.00419261 6 
1233 1 1 -0.00168394 0.00500518 0.000471036 0 0 0 2.00228e-05 -0.000124295 6.37646e-05 0.00012252 0.000116286 -0.000113598 0.153303 0.0363303 0.066914 0.000501842 818.581 0.00418867 -0.004193 5 
2032 1 1 -0.000680369 0.00547677 0.000486242 0 0 0 -0.000139748 -0.000116531 0.000127687 -7.33856e-06 -9.46981e-05 -4.48662e-05 0.14094 -0.115237 -0.626794 0.0005019 826.276 0.00418867 -0.00418771 3 
76 1 1 -0.00954885 0.00563737 0.000456602 0 0 0 -2.31175e-06 -1.86485e-05 -1.17547e-05 3.806e-06 1.23499e-05 1.26769e-05 0.047193 0.00180847 0.00111329 0.000500363 621.347 0.00418867 -0.0041889 4 
1503 1 1 -0.00861637 0.00590475 0.000458408 0 0 0 1.67797e-05 -3.35294e-05 -2.47679e-05 -6.13369e-05 -6.90418e-06 2.25492e-05 0.0227359 0.0459154 -0.0473948 0.000500653 660.08 0.00418867 -0.00418921 5 
868 1 1 -0.00770075 0.00555854 0.00048396 0 0 0 -1.5252e-06 -2.34874e-05 -3.78096e-05 1.22583e-05 -5.83697e-05 -1.25019e-05 0.0221638 -0.004028 0.0353391 0.0005009 692.94 0.00418867 -0.00418982 5 
2305 1 1 -0.00691904 0.00618986 0.000489028 0 0 0 -4.29323e-06 -4.08896e-05 -3.71045e-05 6.89455e-05 -7.58757e-05 -5.02217e-05 0.0629321 -0.043863 0.111702 0.000501095 719.015 0.00418867 -0.00419119 5 
1136 1 1 -0.00596061 0.00602184 0.000477657 0 0 0 -4.38203e-06 -2.81489e-05 -1.16808e-05 0.000219452 -9.67958e-05 -8.59941e-05 0.0722896 0.0029721 -0.0488309 0.0005013 746.373 0.00418867 -0.00419163 4 
1117 1 1 -0.00500054 0.00585728 0.00052564 0 0 0 -2.48385e-05 -3.29789e-05 -4.71533e-05 0.000341568 8.85665e-06 2.41703e-05 -0.00533377 0.0618797 0.0297372 0.000501484 770.829 0.00418867 -0.00419169 3 
1791 1 1 -0.00417102 0.00636895 0.000461487 0 0 0 -1.76723e-05 -5.92736e-05 -1.6949e-05 0.000317039 5.79444e-05 0.000112441 0.0792268 -0.0586439 -0.0635019 0.000501622 789.285 0.00418867 -0.0041922 4 
57 1 1 -0.00332412 0.00588243 0.000484046 0 0 0 1.24403e-05 -4.499e-05 1.82845e-05 0.000178358 -3.00545e-05 -4.01615e-05 0.00676486 -0.0219721 0.128097 0.0005017 799.701 0.00418867 -0.00419217 5 
1367 1 1 -0.0015431 0.00596972 0.000443296 0 0 0 -8.92581e-05 -2.17292e-05 8.2232e-05 2.65753e-05 -8.65931e-05 -4.36384e-05 -0.0579826 -0.250156 0.214958 0.000501855 820.356 0.00418867 -0.00419013 5 
1303 1 1 -0.00952485 0.00727751 0.0004861 0 0 0 1.14351e-05 -4.72009e-05 -3.11935e-05 -1.86304e-05 9.382e-05 8.32751e-05 0.109789 0.0654036 -0.0831542 0.00050031 614.368 0.00418867 -0.00418873 3 
606 1 1 -0.00871576 0.00682744 0.000761758 0 0 0 4.10044e-06 -7.55637e-05 -5.95857e-05 -1.66482e-05 6.84025e-05 0.000105565 -0.0179595 -0.0892129 0.0671524 0.000500637 657.92 0.00418867 -0.00418877 7 
682 1 1 -0.0078328 0.00653298 0.000461724 0 0 0 2.10862e-05 -5.00652e-05 -1.39637e-05 -7.48104e-05 -5.83217e-05 -5.74726e-05 0.0583914 0.0235005 -0.0780362 0.000500888 691.385 0.00418867 -0.00418998 5 
1384 1 1 -0.00657312 0.00712535 0.000494475 0 0 0 7.62959e-05 -0.000164059 -6.60872e-06 -2.57001e-05 0.000292583 -0.000251751 0.215599 0.149873 -0.423808 0.00050118 730.319 0.00418867 -0.00419328 2 
634 1 1 -0.00556299 0.00725165 0.000479971 0 0 0 -3.59596e-05 -0.000144072 -2.24233e-05 0.000272214 0.000102407 -8.05544e-05 0.209503 -0.0767012 -0.461856 0.000501407 760.595 0.00418867 -0.00419453 3 
220 1 1 -0.00334193 0.00685918 0.000458036 0 0 0 -5.93929e-05 -6.03247e-05 6.61213e-05 0.000192813 7.05072e-06 -2.42945e-05 0.100464 -0.0731936 0.064208 0.000501702 799.871 0.00418867 -0.00419224 6 