ITEM: TIMESTEP
2839000
ITEM: NUMBER OF ATOMS
10450
ITEM: BOX BOUNDS mm pp mm
-0.01 0.01
-0.0075 0.0075
0 0.03
ITEM: ATOMS id type type x y z ix iy iz vx vy vz fx fy fz omegax omegay omegaz radius f_Temp[0] f_heatSource[0] f_heatFlux[0] c_coord[0] 
1360 1 1 -0.00949803 -0.00676525 0.000482949 0 0 0 -7.41323e-06 -2.32463e-06 -6.81815e-06 -9.55908e-06 -3.1746e-06 -5.48578e-06 -0.00383644 -0.0116788 0.000618569 0.000500586 651.188 0.00418867 -0.00418868 4 
1101 1 1 -0.00832563 -0.00739928 0.000464409 0 0 0 -9.92374e-06 -1.19034e-05 -1.37332e-05 -2.62316e-05 -3.33168e-05 -2.9526e-05 0.00677478 -0.0185768 0.0131121 0.000500964 701.486 0.00418867 -0.00418869 4 
2577 1 1 -0.00761034 -0.006785 0.000712756 0 0 0 -1.44907e-05 -2.02951e-05 -2.72052e-05 -4.20046e-05 -4.94136e-05 -5.64538e-05 -0.00390954 0.0370366 -0.00743481 0.000501215 735.036 0.00418867 -0.00418871 4 
2282 1 1 -0.00606289 -0.00689205 0.000474306 0 0 0 2.50576e-07 -9.31383e-06 -9.92817e-06 -2.39415e-05 -3.43053e-05 -4.66371e-05 0.0111596 -0.00157504 0.0111339 0.000501647 792.66 0.00418867 -0.00418876 4 
1904 1 1 -0.00487641 -0.00698551 0.000484716 0 0 0 -3.51423e-06 -4.61312e-06 -1.92091e-06 -3.24186e-05 -5.70678e-05 -3.08122e-05 0.0054245 -0.0124689 -0.00297873 0.000501943 832.022 0.00418867 -0.00418879 2 
2537 1 1 -0.00372635 -0.00665345 0.000762224 0 0 0 3.25138e-06 -1.08652e-05 1.41749e-05 -2.05799e-05 -7.05597e-05 -7.85607e-05 0.0108858 0.0183068 -0.00676882 0.000502158 860.698 0.00418867 -0.00418874 4 
1266 1 1 -0.00287179 -0.00705471 0.000483861 0 0 0 5.37228e-06 -2.3047e-06 1.15082e-05 -2.87446e-06 -3.85321e-05 -4.31606e-05 -0.00523295 -0.00817602 0.0185785 0.00050227 875.712 0.00418867 -0.00418872 4 
1738 1 1 -0.00189498 -0.00698279 0.000484493 0 0 0 1.34713e-05 1.13283e-06 2.81813e-05 -1.5716e-05 -4.5675e-05 -6.71335e-05 -0.0231015 -0.00119827 -0.0104688 0.000502366 888.527 0.00418867 -0.0041887 5 
1115 1 1 -9.48632e-05 -0.00741138 0.000471609 0 0 0 1.91757e-05 -8.24843e-06 2.37677e-05 -2.33063e-05 -6.99329e-05 -0.000100522 -0.00258788 0.0226561 0.00220601 0.00050243 897.044 0.00418867 -0.00418871 5 
599 1 1 -0.000990654 -0.00719177 0.000787723 0 0 0 2.64331e-05 -4.60492e-06 4.13183e-05 -3.14485e-05 -8.07361e-05 -0.000112213 -0.00253203 0.0198851 -0.00911925 0.000502412 894.556 0.00418867 -0.00418869 6 
1295 1 1 -0.00951481 -0.00578033 0.000490202 0 0 0 -6.04266e-06 -3.12269e-06 -6.56346e-06 -8.80431e-06 1.3148e-06 -1.20176e-05 0.00201739 -0.00224063 0.00140039 0.000500477 636.588 0.00418867 -0.00418868 3 
620 1 1 -0.00856358 -0.00643132 0.000491206 0 0 0 -1.05129e-05 -1.05351e-05 -1.50615e-05 -1.95471e-05 -2.67328e-05 -2.40108e-05 -0.00142487 -0.00248651 -0.0082181 0.000500925 696.302 0.00418867 -0.00418869 5 
1012 1 1 -0.00776776 -0.00583757 0.000487522 0 0 0 -9.52169e-06 -1.8004e-05 -1.72551e-05 -1.16015e-05 -3.64368e-05 -3.37167e-05 0.0183718 -0.00658422 -0.00652421 0.000501169 728.859 0.00418867 -0.00418871 5 
1283 1 1 -0.00687693 -0.00599462 0.000889124 0 0 0 -1.46575e-05 -2.28203e-05 -2.35597e-05 -3.06199e-05 -5.89447e-05 -5.75636e-05 -0.0022417 -0.0126221 0.0179499 0.000501407 760.541 0.00418867 -0.00418874 5 
2369 1 1 -0.00598494 -0.00589839 0.000476426 0 0 0 -4.79183e-06 -1.11352e-05 -6.95346e-06 -1.93908e-05 -3.29864e-05 -3.75254e-05 0.00536831 -0.0159869 -0.0043646 0.000501659 794.229 0.00418867 -0.00418877 5 
574 1 1 -0.00487324 -0.00584139 0.000509718 0 0 0 0.0152888 0.00151021 0.016125 -1.23118e-05 -1.61117e-05 9.06816e-06 29.8722 -0.176705 -49.589 0.000504242 1138.63 0.00418867 -0.00414964 1 
219 1 1 -0.00268072 -0.00607627 0.00047332 0 0 0 6.81697e-06 -7.15789e-06 8.15843e-06 -1.2278e-05 -3.0032e-05 -4.5364e-05 0.0105674 0.00519601 -0.0126457 0.000502298 879.372 0.00418867 -0.00418871 4 
1971 1 1 -0.00170199 -0.00601582 0.000487352 0 0 0 1.58301e-05 -8.72043e-06 1.70431e-05 -2.42432e-05 -3.39678e-05 -4.93421e-05 0.00109427 -0.00628805 0.00508849 0.000502376 889.794 0.00418867 -0.00418874 5 
1338 1 1 -0.000402406 -0.00646897 0.000480902 0 0 0 2.27331e-05 -7.11967e-06 1.46378e-05 -5.18641e-05 -6.22213e-05 -6.19154e-05 -0.00431091 0.0401928 -0.00625786 0.000502431 897.165 0.00418867 -0.00418861 4 
1180 1 1 -0.00082578 -0.00557284 0.00047812 0 0 0 2.25439e-05 -6.04853e-06 1.81146e-05 -3.07035e-05 -4.81334e-05 -6.51777e-05 0.0104853 0.0300256 -0.00246549 0.000502421 895.833 0.00418867 -0.00418873 4 
1145 1 1 -0.00879291 -0.00511199 0.000490919 0 0 0 -2.54502e-06 -7.72966e-06 -1.03723e-05 -1.87197e-06 -1.1783e-05 -1.3327e-05 0.0125508 0.012321 -0.0155592 0.000500884 690.887 0.00418867 -0.00418869 4 
218 1 1 -0.00783898 -0.00485503 0.000480309 0 0 0 -6.41378e-06 -1.8469e-05 -1.84266e-05 -7.56033e-06 -2.19519e-05 -2.42679e-05 0.00796528 -0.0063226 -0.00832709 0.0005012 732.946 0.00418867 -0.00418872 5 
2561 1 1 -0.00591828 -0.00491144 0.000474298 0 0 0 -9.29518e-06 -1.24425e-05 -5.06555e-06 -1.42524e-05 -2.24417e-05 -2.35016e-05 0.0125969 -0.0241242 0.0223565 0.000501709 800.891 0.00418867 -0.00418875 5 
1998 1 1 -0.0040631 -0.00522377 0.000466871 0 0 0 1.72753e-05 -7.60013e-06 4.5497e-06 -3.19855e-05 -2.95162e-05 -4.20203e-05 0.00467446 0.0217742 0.0298578 0.000502115 854.935 0.00418867 -0.00418873 4 
1657 1 1 -0.00494614 -0.00480712 0.000493564 0 0 0 3.92055e-06 -1.1589e-05 6.20599e-06 -8.80997e-06 -1.12831e-05 -2.91651e-05 0.0110128 -0.00285246 -0.0166023 0.000501958 834.029 0.00418867 -0.00418874 4 
323 1 1 -0.0030781 -0.00516815 0.000483215 0 0 0 1.72965e-05 -2.23266e-06 7.45208e-06 -3.31566e-05 -4.63838e-05 -3.8449e-05 0.00444121 -0.00157518 -0.012918 0.000502251 873.11 0.00418867 -0.00418871 5 
615 1 1 -0.00208734 -0.00510659 0.000493153 0 0 0 2.73767e-05 -1.22942e-05 1.22246e-05 -3.03577e-05 -1.80762e-05 -3.748e-05 0.00957322 0.0369057 -0.0271571 0.000502347 885.955 0.00418867 -0.00418872 4 
413 1 1 -0.00874217 -0.00412726 0.000494308 0 0 0 -2.05968e-05 -4.41714e-06 -1.03644e-05 2.1278e-05 7.15263e-06 8.99183e-06 -0.00806896 -0.0374479 0.0500218 0.000500852 686.632 0.00418867 -0.00418868 4 
1175 1 1 -0.00760414 -0.00389289 0.000480637 0 0 0 -2.64088e-05 -1.91964e-05 -7.26743e-06 -1.01448e-05 -1.2343e-05 -6.50457e-06 0.0258819 -0.0524588 0.0569872 0.000501271 742.508 0.00418867 -0.00418872 4 
1378 1 1 -0.00678454 -0.00444638 0.00047591 0 0 0 -1.00509e-05 -1.81108e-05 -6.70878e-06 -1.20357e-05 -1.97949e-05 -1.61408e-05 0.04028 -0.0119043 -0.0271654 0.000501515 774.97 0.00418867 -0.00418873 4 
1387 1 1 -0.00659149 -0.0036232 0.000963734 0 0 0 -1.65938e-05 -2.85834e-05 -1.42945e-05 -5.68625e-06 -5.53747e-06 -3.39825e-05 -0.0342968 0.00570879 0.0400737 0.000501611 787.866 0.00418867 -0.00418872 6 
1741 1 1 -0.00574275 -0.00382554 0.000486148 0 0 0 -1.18907e-05 -2.20152e-05 -1.0402e-05 7.21392e-06 -1.20298e-06 -3.07815e-05 0.0405235 -0.0192869 -0.0201241 0.000501788 811.435 0.00418867 -0.00418873 3 
1823 1 1 -0.00412845 -0.0042458 0.000474754 0 0 0 8.14178e-06 -9.33203e-06 3.52536e-06 5.02352e-06 -1.83185e-05 -4.52758e-05 0.0015271 0.0170331 0.00527293 0.000502109 854.156 0.00418867 -0.00418871 6 
1512 1 1 -0.00337103 -0.00365446 0.000706592 0 0 0 2.30691e-05 -1.09801e-05 7.03394e-06 -1.12024e-05 4.0719e-06 -4.08426e-05 -0.0312164 -0.0510322 -0.0117982 0.000502195 865.708 0.00418867 -0.00418866 5 
2717 1 1 -0.00256265 -0.00417532 0.000486039 0 0 0 2.90813e-05 -1.50643e-05 1.78502e-05 -4.12712e-05 -6.38894e-06 -3.30986e-05 0.0286323 0.0374761 -0.00677869 0.000502289 878.171 0.00418867 -0.00418869 4 
2319 1 1 -0.000214197 -0.00431917 0.000464819 0 0 0 4.39643e-05 1.12807e-05 1.11742e-05 -0.000240081 0.000525127 7.84563e-05 0.00450454 0.0287141 0.0310235 0.000502424 896.173 0.00418867 -0.00418488 5 
309 1 1 -0.000987873 -0.00409607 0.000985461 0 0 0 4.79555e-05 -2.22746e-06 2.32669e-05 0.000139567 1.59439e-05 -9.92506e-05 -0.00453489 0.0147561 -0.000387078 0.000502405 893.636 0.00418867 -0.00418926 7 
2212 1 1 -0.00951252 -0.00345394 0.000475509 0 0 0 -7.50477e-06 -3.47543e-06 -4.14484e-06 5.86191e-06 -2.16502e-07 -4.88126e-06 0.00410581 -0.0118083 -0.009357 0.000500316 615.126 0.00418867 -0.00418867 2 
616 1 1 -0.00849244 -0.00317249 0.000491972 0 0 0 -2.78314e-05 1.35054e-07 -1.95812e-05 2.61491e-05 2.68246e-05 -8.00599e-06 -0.0175894 -0.0360747 -0.0258432 0.000500963 701.353 0.00418867 -0.00418868 4 
2278 1 1 -0.00685724 -0.00278295 0.000496049 0 0 0 -8.98075e-06 -2.05577e-05 -1.81209e-05 1.50359e-05 1.94507e-05 -2.3815e-05 0.0246886 -0.0189891 -0.0404956 0.000501526 776.53 0.00418867 -0.0041887 4 
1466 1 1 -0.00586703 -0.00264289 0.000486338 0 0 0 4.91964e-06 -2.27101e-05 -1.05963e-05 3.24307e-06 1.02359e-05 -2.62807e-05 0.0382803 0.0101002 0.034925 0.000501681 797.17 0.00418867 -0.0041887 3 
2011 1 1 -0.00476232 -0.00349292 0.000486419 0 0 0 -4.20106e-06 -1.10893e-05 -1.75157e-06 2.32158e-05 -1.06367e-05 -1.4547e-05 0.0109184 -0.0296814 -0.0101778 0.00050202 842.349 0.00418867 -0.00418872 3 
2724 1 1 -0.00486414 -0.00251508 0.000467481 0 0 0 1.91877e-05 -1.35077e-05 7.47273e-06 -1.45423e-06 -2.68122e-06 -4.17739e-05 0.0212963 0.0212237 -0.0186936 0.000502006 840.499 0.00418867 -0.00418869 4 
1241 1 1 -0.00394708 -0.0028831 0.000480768 0 0 0 2.40026e-05 -1.2354e-05 -1.29025e-06 -6.2673e-06 1.4465e-05 -4.55644e-05 0.0205372 0.0299074 0.0186592 0.000502128 856.709 0.00418867 -0.00418866 4 
403 1 1 -0.0025195 -0.00318223 0.00051398 0 0 0 2.94463e-05 -4.4381e-06 3.22426e-05 -3.07228e-05 2.06066e-05 -4.76014e-05 -0.0198834 -0.0519426 0.0332384 0.000502294 878.875 0.00418867 -0.00418866 4 
536 1 1 -0.00156126 -0.00294084 0.000481155 0 0 0 3.26344e-05 8.41692e-06 1.91304e-05 2.30903e-05 -7.93709e-06 -2.02071e-05 -0.0432285 0.0596884 -0.0342534 0.000502378 890.093 0.00418867 -0.0041892 5 
1281 1 1 -0.000658388 -0.00332195 0.000474818 0 0 0 2.52062e-05 2.26822e-06 1.07276e-05 0.000225497 6.0352e-05 3.68843e-05 -0.00522268 0.0226078 0.0251208 0.000502421 895.85 0.00418867 -0.00419067 4 
2621 1 1 -0.00951181 -0.00154847 0.000496499 0 0 0 -4.58571e-06 -2.4774e-06 -7.6057e-06 7.43977e-06 1.51605e-05 7.9183e-06 0.00454972 0.00984197 -0.0103586 0.000500431 630.431 0.00418867 -0.00418866 3 
1699 1 1 -0.00896591 -0.00233769 0.000730966 0 0 0 -1.59631e-05 -2.1727e-06 -2.90096e-05 2.27223e-05 3.18249e-05 9.79458e-06 0.00865702 0.0312858 -0.00493178 0.000500685 664.317 0.00418867 -0.00418866 4 
1246 1 1 -0.00785389 -0.00241068 0.000497188 0 0 0 -7.36599e-06 -1.07956e-05 -1.64663e-05 2.21106e-05 4.3902e-05 -1.61858e-05 0.00437131 -0.00114095 -0.0202941 0.000501161 727.822 0.00418867 -0.00418867 4 
1853 1 1 -0.00706265 -0.00180749 0.000465282 0 0 0 1.37742e-06 -1.65338e-05 -8.93541e-06 2.22926e-05 4.06319e-05 -2.2088e-05 0.0249361 -0.00379573 -0.000107695 0.00050133 750.375 0.00418867 -0.00418867 5 
112 1 1 -0.00607013 -0.00157469 0.000470497 0 0 0 9.78136e-06 -2.32505e-05 -7.36198e-06 1.96359e-05 3.64999e-05 -2.08765e-05 0.0354075 0.0166695 0.000807025 0.000501658 794.1 0.00418867 -0.00418865 4 
2470 1 1 -0.00377154 -0.00173766 0.000459949 0 0 0 2.32895e-05 -1.35404e-05 2.04328e-05 2.3671e-06 4.3489e-05 -4.93848e-05 0.0241737 0.0183215 0.0519653 0.000502162 861.288 0.00418867 -0.00418858 3 
1863 1 1 -0.00297969 -0.00230541 0.000474931 0 0 0 3.2841e-05 -4.09635e-06 1.54352e-05 -2.77867e-05 2.09246e-05 -3.752e-05 0.0087181 0.0292134 -0.0283515 0.000502255 873.679 0.00418867 -0.00418859 5 
1770 1 1 -0.00202344 -0.00207554 0.000488744 0 0 0 3.82861e-05 7.71725e-06 1.19177e-05 -1.36324e-05 1.96068e-06 -3.28531e-05 -0.00436639 0.0309544 0.0293554 0.000502355 886.948 0.00418867 -0.00418876 4 
2195 1 1 -0.000705457 -0.0015361 0.000474591 0 0 0 5.76672e-05 3.51613e-05 9.48425e-06 0.000115441 -8.36214e-05 5.53433e-05 -0.0750825 0.101383 -0.0194097 0.000502438 898.123 0.00418867 -0.00419127 5 
6561 1 1 -0.000281772 -0.00241967 0.000494372 0 0 0 4.69633e-05 1.7725e-05 2.51602e-05 0.000479823 0.00023103 0.000246458 0.0105455 0.00408998 -0.0214997 0.00050244 898.288 0.00418867 -0.00419218 4 
2166 1 1 -0.00951473 -0.000552071 0.000534826 0 0 0 -1.73221e-06 -4.83474e-06 -4.59516e-06 7.97802e-06 1.79978e-05 5.52857e-06 0.0020655 0.000504845 -0.00321832 0.000500421 629.135 0.00418867 -0.00418865 4 
2478 1 1 -0.00866495 -0.00104001 0.000455822 0 0 0 -1.33536e-06 -8.60353e-06 -1.02105e-05 1.31834e-05 3.09297e-05 -1.97939e-06 0.0173871 0.00116751 -0.00319871 0.000500728 670.042 0.00418867 -0.00418865 5 
2259 1 1 -0.00790248 -0.00149325 0.000894689 0 0 0 -1.16495e-06 -1.93521e-05 -1.74603e-05 3.66301e-05 6.63539e-05 -2.07285e-05 0.0097863 -0.00773052 -0.00459523 0.000501089 718.18 0.00418867 -0.00418866 6 
2421 1 1 -0.00778606 -0.000545327 0.00049125 0 0 0 6.52388e-06 -1.33446e-05 -9.22547e-06 6.35699e-05 4.82243e-05 5.80882e-06 0.0218364 0.0161333 -0.0216418 0.0005012 732.947 0.00418867 -0.0041886 2 
2518 1 1 -0.00676178 -0.000858027 0.000513048 0 0 0 7.72461e-06 -2.48969e-05 -1.57038e-06 4.66801e-05 6.2684e-05 -7.47199e-06 -0.0214199 0.015403 -0.000946585 0.000501517 775.321 0.00418867 -0.00418863 4 
143 1 1 -0.00547588 -0.000795549 0.000475198 0 0 0 2.26323e-05 -2.79562e-05 7.68914e-06 1.39877e-05 5.42293e-05 -3.51547e-05 0.0424385 0.0278811 -0.0223053 0.000501784 810.885 0.00418867 -0.00418863 5 
74 1 1 -0.00447753 -0.000703267 0.000490418 0 0 0 3.53116e-05 -2.01581e-05 1.05312e-05 -3.49963e-06 4.33641e-05 -4.29553e-05 0.0377367 0.0448945 0.0210504 0.000502012 841.322 0.00418867 -0.00418859 4 
1293 1 1 -0.00311826 -0.00119639 0.000947363 0 0 0 4.83488e-05 -1.18866e-05 3.24228e-05 -8.39996e-06 4.09336e-05 -9.37241e-05 0.00751239 0.037065 -0.0443132 0.000502224 869.523 0.00418867 -0.00418855 5 
115 1 1 -0.00216431 -0.00110427 0.000493021 0 0 0 4.15398e-05 1.12519e-05 1.28371e-05 -6.04972e-06 3.15036e-05 -7.10457e-05 -0.0291185 0.0401082 -0.00723818 0.00050235 886.311 0.00418867 -0.0041886 4 
197 1 1 -0.00128373 -0.000862776 0.000874537 0 0 0 7.06055e-05 4.17647e-05 2.34225e-05 3.01031e-05 -3.74542e-05 -0.000162513 0.0201951 0.00192973 0.0466941 0.000502397 892.564 0.00418867 -0.00418911 5 
1095 1 1 -0.000313906 -0.00060951 0.000503908 0 0 0 -0.0238029 0.0119091 0.00163683 -5.83476e-06 -1.8694e-05 2.69755e-05 8.4771 -54.8725 41.0397 0.000503921 1095.85 0.00418867 -0.00406855 1 
2321 1 1 -0.00951197 0.000460911 0.000486928 0 0 0 1.31274e-06 -4.18881e-06 -1.58461e-06 5.28089e-06 1.40024e-05 4.863e-06 0.00929737 0.00130002 -0.00741683 0.000500433 630.741 0.00418867 -0.00418863 3 
754 1 1 -0.00865861 -5.01752e-05 0.000492765 0 0 0 3.31234e-06 -9.45878e-06 -4.86786e-06 1.70814e-05 2.9338e-05 1.5246e-06 0.00360319 0.00531483 -0.00936513 0.000500754 673.499 0.00418867 -0.00418861 6 
1880 1 1 -0.00780276 0.000451165 0.000473303 0 0 0 1.00405e-05 -1.03925e-05 -2.5874e-06 2.28059e-05 3.81779e-05 -3.39065e-06 0.0103272 0.00273703 0.00954867 0.000501096 719.193 0.00418867 -0.00418858 7 
783 1 1 -0.0068811 0.000128049 0.000483521 0 0 0 1.78487e-05 -2.08488e-05 -1.59376e-06 2.94427e-05 6.53727e-05 -5.59404e-06 0.0236676 0.0074209 -0.0307462 0.000501433 764.074 0.00418867 -0.00418858 5 
233 1 1 -0.00604743 -0.000134329 0.000922003 0 0 0 3.32831e-05 -3.94343e-05 1.23432e-05 3.04897e-05 9.29039e-05 -4.75957e-05 0.00526107 -0.00947449 0.00837078 0.00050166 794.379 0.00418867 -0.00418861 8 
129 1 1 -0.00507625 3.38764e-05 0.000807144 0 0 0 4.13556e-05 -3.62634e-05 1.95595e-05 1.78711e-05 6.66233e-05 -5.19853e-05 -0.0213906 -0.0177446 -0.00774182 0.000501886 824.484 0.00418867 -0.00418859 7 
2061 1 1 -0.00418302 0.000291795 0.000480239 0 0 0 3.09514e-05 -1.36814e-05 2.34169e-05 5.35416e-06 3.49826e-05 -5.32412e-05 0.0276676 0.036188 0.0512149 0.000502079 850.134 0.00418867 -0.00418856 4 
2611 1 1 -0.00367523 -0.000388203 0.000990021 0 0 0 5.33785e-05 -1.10302e-05 3.11552e-05 -1.37848e-06 4.62069e-05 -9.4449e-05 -0.00430879 -0.0347606 0.0110797 0.000502134 857.536 0.00418867 -0.00418855 6 
1496 1 1 -0.0028256 -0.000380824 0.000477469 0 0 0 3.70722e-05 -1.85855e-06 2.32765e-05 -1.59536e-05 3.218e-05 -7.8133e-05 0.0103866 0.0588871 0.0168954 0.000502264 874.893 0.00418867 -0.00418851 5 
2327 1 1 -0.00232456 0.000477278 0.000487483 0 0 0 2.56012e-05 4.78551e-06 1.4819e-05 -7.35789e-06 1.16288e-05 -6.83082e-05 -0.0147404 0.016152 0.0374043 0.000502297 879.252 0.00418867 -0.00418849 5 
109 1 1 -0.00147738 -1.3336e-05 0.000444378 0 0 0 3.88148e-05 2.62126e-05 1.97076e-05 -1.84568e-05 -8.57156e-06 -8.84162e-05 -0.0558338 0.0667887 0.00435745 0.000502387 891.258 0.00418867 -0.00418862 4 
2262 1 1 -0.00865424 0.000950109 0.000492773 0 0 0 6.42875e-06 -8.87434e-06 -2.79773e-06 1.93844e-05 2.92281e-05 1.31368e-06 0.00171341 0.00667104 -0.00160489 0.000500794 678.912 0.00418867 -0.00418859 5 
1456 1 1 -0.0076015 0.00142532 0.000491424 0 0 0 1.30313e-05 -1.75935e-05 2.04757e-06 2.23163e-05 4.84126e-05 3.28977e-06 0.0226791 0.00921071 -0.0260478 0.000501229 736.831 0.00418867 -0.0041885 5 
2309 1 1 -0.00630065 0.000818206 0.000879127 0 0 0 3.60471e-05 -3.56917e-05 1.74761e-06 3.14875e-05 9.32215e-05 -2.26742e-05 -0.0237604 -0.0286536 -0.0092265 0.000501567 781.896 0.00418867 -0.00418855 5 
386 1 1 -0.00526671 0.000934937 0.000479826 0 0 0 2.71903e-05 -2.51477e-05 1.04e-05 2.26549e-05 4.15514e-05 -9.58419e-06 0.0300396 0.0513179 0.0228374 0.000501889 824.831 0.00418867 -0.00418852 2 
2516 1 1 -0.00433658 0.0013177 0.000492821 0 0 0 2.71267e-05 -1.61318e-05 1.51955e-05 6.81878e-06 4.49954e-05 -2.27808e-05 0.0217417 0.0278561 0.00828235 0.000502058 847.357 0.00418867 -0.00418849 3 
2382 1 1 -0.00328858 0.000739061 0.000498255 0 0 0 2.64445e-05 -4.15431e-06 1.93502e-05 -3.31998e-06 3.62528e-05 -5.6648e-05 0.00808785 0.0340998 -0.0211691 0.000502193 865.395 0.00418867 -0.00418851 4 
2566 1 1 -0.0024856 0.00144415 0.000468118 0 0 0 3.20173e-05 -1.52197e-06 2.10641e-05 -7.25014e-06 2.74424e-05 -7.90854e-05 0.00987702 0.0493738 -0.0397725 0.000502292 878.619 0.00418867 -0.00418847 3 
178 1 1 -0.00143934 0.000979414 0.000499076 0 0 0 4.3499e-05 1.05565e-05 1.44155e-05 -4.81888e-05 2.31318e-06 -4.68694e-05 0.0336227 0.0890373 -0.00399024 0.00050243 897.043 0.00418867 -0.00418838 2 
2022 1 1 -0.00012712 0.000828462 0.000476452 0 0 0 4.39994e-05 3.57534e-05 3.51407e-05 3.34448e-05 4.27023e-05 -7.64069e-05 -0.0651146 0.0898083 -0.0435219 0.000502462 901.247 0.00418867 -0.00418895 4 
628 1 1 -0.00909127 0.00183248 0.00046009 0 0 0 2.40564e-06 -9.46658e-06 -1.736e-06 1.6711e-05 2.52777e-05 2.93126e-06 0.0160334 -0.00212335 0.00360869 0.000500688 664.79 0.00418867 -0.00418857 4 
1700 1 1 -0.00762021 0.00249192 0.000489683 0 0 0 1.35044e-05 -1.65497e-05 2.77817e-06 1.80448e-05 5.25942e-05 5.84633e-06 0.0319219 0.012738 -0.00889753 0.000501258 740.698 0.00418867 -0.00418843 3 
449 1 1 -0.00663343 0.00164746 0.000480107 0 0 0 2.12352e-05 -2.32457e-05 -2.60689e-07 1.01069e-05 5.31315e-05 -1.05217e-07 0.039963 0.0277065 0.0212292 0.000501501 773.073 0.00418867 -0.00418848 4 
986 1 1 -0.00592674 0.00232843 0.000483235 0 0 0 1.87184e-05 -1.37257e-05 9.44362e-06 1.58102e-05 2.03536e-05 -1.13066e-05 0.0205764 0.0144169 -0.00706621 0.000501712 801.289 0.00418867 -0.00418845 5 
1906 1 1 -0.00495378 0.00210325 0.000489703 0 0 0 2.34504e-05 -1.37511e-05 1.50086e-05 1.22028e-05 1.84164e-05 -2.31221e-05 0.0216244 0.00932503 0.0125978 0.000501937 831.283 0.00418867 -0.00418848 6 
2667 1 1 -0.00343249 0.0017275 0.000480101 0 0 0 2.54016e-05 1.54531e-07 2.24262e-05 -9.60075e-06 1.79606e-05 -5.86118e-05 -0.00531362 0.0103023 0.0223789 0.000502184 864.227 0.00418867 -0.0041885 6 
513 1 1 -0.00147801 0.00197324 0.000476392 0 0 0 3.86668e-05 1.56736e-05 4.08995e-05 -1.32252e-05 2.48244e-05 -0.000104617 -0.0121622 0.0534618 0.0102318 0.000502421 895.817 0.00418867 -0.00418833 4 
654 1 1 -0.00064854 0.00158314 0.000861922 0 0 0 7.11626e-05 5.70094e-05 6.32698e-05 -3.03215e-06 6.66094e-05 -0.00019976 -0.0363266 -0.000100097 0.0448959 0.000502449 899.476 0.00418867 -0.00418827 5 
1500 1 1 -0.000138267 0.00234711 0.000471791 0 0 0 4.14046e-05 4.76367e-05 2.59267e-05 -8.34606e-06 1.86159e-05 -0.000123949 -0.0809921 0.0536545 0.018084 0.000502455 900.316 0.00418867 -0.00418791 5 
1350 1 1 -0.00951494 0.00264222 0.000821211 0 0 0 1.48064e-07 -9.01748e-06 -7.84857e-07 1.04702e-05 5.81467e-06 2.23299e-06 -0.00686386 -0.000232338 -0.0118393 0.000500492 638.605 0.00418867 -0.00418859 4 
2530 1 1 -0.0085799 0.00269378 0.000473603 0 0 0 4.44813e-06 -8.44026e-06 -1.05419e-07 1.18965e-05 2.80185e-05 -4.35692e-06 0.0083892 -0.00551735 0.00292256 0.000500884 690.81 0.00418867 -0.00418852 5 
990 1 1 -0.00674519 0.00277001 0.000850014 0 0 0 2.40471e-05 -2.41208e-05 1.44856e-05 3.81511e-05 4.94301e-05 5.12144e-08 0.0360589 0.000530868 0.0131165 0.000501535 777.715 0.00418867 -0.00418835 6 
1282 1 1 -0.00601527 0.00331212 0.000486989 0 0 0 1.65166e-05 -8.4981e-06 1.64173e-05 2.84457e-05 8.00967e-06 -8.04039e-06 0.00208417 0.0124517 0.00463333 0.000501734 804.191 0.00418867 -0.00418846 6 
2218 1 1 -0.00504617 0.00312629 0.000485425 0 0 0 2.38648e-05 -5.92932e-06 1.23511e-05 1.57034e-05 3.29987e-06 -3.44022e-05 0.0029049 0.0214096 0.00107761 0.000501938 831.441 0.00418867 -0.00418849 4 
1002 1 1 -0.00404942 0.00250803 0.000475271 0 0 0 2.8084e-05 -1.71498e-06 2.15713e-05 6.08583e-06 1.00231e-05 -5.40855e-05 0.00355435 0.0350396 -0.00683366 0.000502104 853.513 0.00418867 -0.00418851 6 
2203 1 1 -0.0030651 0.00265577 0.000499717 0 0 0 2.5481e-05 1.49175e-06 3.29545e-05 3.88878e-06 1.04065e-05 -7.23926e-05 0.0143777 -0.0206081 0.00218129 0.000502239 871.571 0.00418867 -0.00418851 4 
426 1 1 -0.00208296 0.00281201 0.000486633 0 0 0 3.76816e-05 9.18267e-06 3.64812e-05 -6.35391e-06 1.46113e-05 -9.17086e-05 -0.0115115 0.0541196 0.00808221 0.00050234 884.966 0.00418867 -0.00418851 4 
1165 1 1 -0.00093231 0.002665 0.000936686 0 0 0 5.46365e-05 3.66199e-05 6.59214e-05 -1.66264e-05 1.70051e-05 -0.000183504 0.0233659 0.038618 0.0347556 0.000502423 896.059 0.00418867 -0.0041883 7 
885 1 1 -0.000527336 0.00342816 0.000476178 0 0 0 2.90914e-05 2.32394e-05 3.92603e-05 -8.92191e-06 -1.08985e-05 -0.00011233 -0.0321246 0.0408274 -0.0256448 0.000502432 897.309 0.00418867 -0.00418846 5 
1161 1 1 -0.00916385 0.00350354 0.000487203 0 0 0 -3.05104e-07 -7.13399e-06 -1.38595e-06 1.20346e-06 5.20208e-07 2.86416e-06 0.00877514 -0.000490889 0.00879122 0.000500603 653.395 0.00418867 -0.00418858 5 
1397 1 1 -0.00950398 0.00443968 0.000498045 0 0 0 -9.22427e-07 -2.85795e-06 7.6399e-08 6.90694e-06 -1.6454e-06 -2.89157e-06 -0.00426461 -0.000847404 -0.00241911 0.000500458 634.048 0.00418867 -0.00418862 3 
358 1 1 -0.00866842 0.00420314 0.00098325 0 0 0 7.57716e-06 -1.81513e-05 -3.89473e-06 3.1393e-05 -3.63971e-05 -9.62972e-06 0.00871354 0.0182117 -0.0284688 0.000500804 680.176 0.00418867 -0.00418857 4 
384 1 1 -0.0073528 0.00349541 0.000512564 0 0 0 -0.0495936 -0.0244469 0.0321544 3.04738e-05 -5.62795e-05 1.92586e-05 47.5588 -92.8173 576.536 0.0005031 986.394 0.00418867 -0.00407795 1 
1403 1 1 -0.00636223 0.00423072 0.000539013 0 0 0 1.51386e-05 -8.98208e-06 1.19814e-05 3.57267e-05 -9.77335e-07 -9.60854e-06 -0.00150943 -0.00526962 0.00519575 0.000501638 791.367 0.00418867 -0.00418851 6 
263 1 1 -0.00538345 0.00407058 0.000486951 0 0 0 1.73827e-05 -6.00194e-06 1.2148e-05 2.28624e-05 -7.42886e-06 -2.78615e-05 0.00543974 0.00703094 -0.00212492 0.000501808 814.127 0.00418867 -0.00418852 7 
1533 1 1 -0.00412671 0.00350504 0.000505586 0 0 0 3.81732e-05 -1.55068e-06 3.24067e-05 1.33932e-05 -1.1771e-06 -6.28758e-05 0.000597023 -0.0616326 0.00330901 0.000502074 849.593 0.00418867 -0.00418852 5 
136 1 1 -0.00447833 0.00444135 0.000460436 0 0 0 2.50845e-05 -4.84835e-06 1.84269e-05 6.99732e-06 -1.24526e-05 -4.45345e-05 0.00974605 0.0247178 0.00072732 0.000501999 839.585 0.00418867 -0.00418857 4 
963 1 1 -0.00318817 0.00382918 0.000459761 0 0 0 4.26635e-05 1.093e-05 2.6317e-05 6.91737e-06 3.71507e-06 -6.83612e-05 -0.0267828 0.0789574 0.0266313 0.000502204 866.831 0.00418867 -0.00418857 4 
632 1 1 -0.00231054 0.00432575 0.000494726 0 0 0 4.1112e-05 1.04756e-05 3.45335e-05 3.44872e-06 -9.81773e-06 -6.89218e-05 -0.0101676 0.0680661 0.0345219 0.000502332 883.959 0.00418867 -0.00418862 3 
1018 1 1 -0.00150135 0.00362188 0.000457666 0 0 0 2.12099e-05 1.28062e-05 4.00171e-05 -8.99623e-06 -2.10119e-06 -0.000101314 -0.0103278 0.0204003 0.0237283 0.000502396 892.53 0.00418867 -0.00418854 5 
1421 1 1 -0.000842213 0.00437271 0.000471901 0 0 0 1.9435e-05 1.81787e-05 3.11253e-05 -8.80772e-06 -1.5743e-05 -9.44312e-05 -0.038319 0.0240693 0.0261174 0.000502414 894.887 0.00418867 -0.00418857 6 
76 1 1 -0.00952444 0.0054347 0.000486785 0 0 0 -1.47768e-06 -5.32096e-06 -5.28384e-06 -2.90083e-06 -1.61268e-05 -1.01287e-05 0.00331799 0.0044808 -0.00830214 0.000500454 633.587 0.00418867 -0.00418864 4 
758 1 1 -0.0079681 0.00466162 0.000462133 0 0 0 5.71609e-06 -1.49253e-05 -5.18522e-06 2.86176e-05 -4.62318e-05 -5.97627e-06 0.0242193 0.00654121 0.0168533 0.000501141 725.153 0.00418867 -0.00418856 4 
2412 1 1 -0.0070228 0.00495487 0.000497422 0 0 0 4.40278e-06 -6.03187e-06 4.44251e-07 1.56074e-05 -1.36125e-05 -1.81739e-05 -0.00522168 -0.00990622 0.00762609 0.000501371 755.82 0.00418867 -0.00418856 3 
1166 1 1 -0.00573325 0.00499066 0.000475778 0 0 0 1.41179e-05 -4.44847e-06 9.5969e-06 2.28459e-05 -2.29013e-05 -1.90567e-05 0.00444376 0.0243558 0.00404591 0.000501752 806.666 0.00418867 -0.00418855 4 
222 1 1 -0.00409921 0.00547208 0.000480158 0 0 0 2.09781e-05 1.26065e-06 2.18951e-05 5.09672e-06 -2.09215e-05 -5.28708e-05 -0.00970873 0.0296304 0.0138368 0.000502088 851.417 0.00418867 -0.00418863 5 
2679 1 1 -0.00337255 0.0047999 0.000510937 0 0 0 3.17384e-05 6.228e-06 3.0752e-05 6.00298e-06 -7.38152e-06 -7.84162e-05 0.00954942 -0.0247941 0.00657409 0.00050219 865.043 0.00418867 -0.00418861 4 
2253 1 1 -0.00251624 0.00529919 0.00047933 0 0 0 2.25045e-05 9.65447e-06 3.18752e-05 3.26822e-06 -1.74046e-05 -6.69512e-05 -0.0258052 0.0269045 0.0153952 0.000502278 876.697 0.00418867 -0.00418865 6 
1233 1 1 -0.00158128 0.00500859 0.000492475 0 0 0 2.41473e-05 1.11396e-05 3.16408e-05 -6.89832e-06 -2.12001e-05 -8.54166e-05 -0.00574009 0.0142578 -0.0129296 0.000502368 888.757 0.00418867 -0.00418864 6 
2032 1 1 -0.000540964 0.00542884 0.000495635 0 0 0 2.32275e-05 2.76835e-06 4.84932e-05 -1.07607e-05 -5.00191e-05 -0.000120712 -0.0135353 0.0402917 0.00845427 0.00050245 899.633 0.00418867 -0.00418867 4 
401 1 1 -0.00953002 0.00631006 0.000963872 0 0 0 -2.44627e-07 -1.0419e-05 -3.44182e-06 5.0655e-06 -2.75755e-05 2.87636e-06 0.017583 0.00510749 -0.00816525 0.000500471 635.843 0.00418867 -0.00418865 4 
1503 1 1 -0.00860989 0.00576475 0.000477093 0 0 0 -8.61464e-07 -1.18355e-05 -6.87203e-06 -2.35528e-06 -3.81822e-05 -1.23691e-05 0.0196766 0.00181351 0.00242834 0.000500861 687.761 0.00418867 -0.00418864 5 
868 1 1 -0.00763418 0.00572572 0.000491845 0 0 0 1.30534e-06 -1.10901e-05 -6.44069e-06 -3.35823e-06 -4.30767e-05 -2.33356e-05 0.0123014 -0.00156309 7.32881e-05 0.00050123 736.977 0.00418867 -0.00418862 6 
2305 1 1 -0.0068468 0.00630864 0.000493265 0 0 0 2.23487e-06 -8.57876e-06 1.21392e-06 -3.63858e-06 -4.45137e-05 -1.13046e-05 0.0140995 -0.00511887 0.00686754 0.000501456 767.084 0.00418867 -0.00418866 6 
1136 1 1 -0.00589597 0.00607425 0.000489596 0 0 0 8.89265e-06 -8.34237e-06 7.32286e-06 -3.27801e-07 -4.38833e-05 -1.67662e-05 0.0101982 -0.000328462 -0.00330699 0.000501708 800.779 0.00418867 -0.00418864 4 
1117 1 1 -0.00492608 0.00600701 0.00061096 0 0 0 1.82551e-05 -8.1725e-06 2.15272e-05 6.36363e-07 -4.72939e-05 -4.33916e-05 -0.0096092 -0.0119307 0.0116681 0.000501964 834.852 0.00418867 -0.00418865 5 
1791 1 1 -0.00406748 0.00647579 0.000480938 0 0 0 9.80561e-06 -8.08914e-07 1.51164e-05 2.40931e-06 -3.52468e-05 -4.32571e-05 -0.0047072 0.0131741 0.0102512 0.000502073 849.365 0.00418867 -0.00418869 6 
57 1 1 -0.00323 0.00596956 0.000485754 0 0 0 1.08172e-05 3.11208e-06 2.15307e-05 5.2512e-06 -1.9201e-05 -5.0381e-05 0.000258802 -0.00964416 0.00022466 0.000502197 865.881 0.00418867 -0.00418868 5 
1367 1 1 -0.00148011 0.00599132 0.000499392 0 0 0 1.74427e-05 3.46367e-06 3.01501e-05 -3.86741e-06 -3.6896e-05 -7.27344e-05 0.00315786 0.00874279 0.0180747 0.000502389 891.524 0.00418867 -0.00418868 5 
1303 1 1 -0.00951261 0.00724626 0.000491025 0 0 0 -2.2044e-06 -5.08244e-06 -2.8939e-06 -1.86151e-07 -1.48152e-05 -2.19033e-06 0.00650725 0.00210894 -0.00702942 0.000500454 633.598 0.00418867 -0.00418867 2 
606 1 1 -0.00870062 0.00673197 0.000692923 0 0 0 -3.34061e-06 -1.56683e-05 -7.52986e-06 -1.1275e-06 -5.02327e-05 -1.0586e-05 -0.0115203 0.0089234 -0.00515713 0.00050084 685.002 0.00418867 -0.00418866 7 
682 1 1 -0.00774543 0.00671765 0.000482533 0 0 0 -3.20381e-06 -1.29269e-05 -1.76651e-07 -8.23103e-06 -5.25447e-05 -1.46704e-06 0.0212683 -0.0128883 0.00788619 0.000501209 734.253 0.00418867 -0.00418865 4 
1384 1 1 -0.00652826 0.00723981 0.000498795 0 0 0 -1.30843e-06 -3.50983e-06 1.26577e-06 -2.01877e-06 -3.43448e-05 -2.06058e-05 -0.0081123 -0.000774155 0.00139062 0.000501623 789.446 0.00418867 -0.00418871 3 
634 1 1 -0.00553206 0.0072544 0.000473549 0 0 0 5.03722e-07 -1.57639e-05 4.87343e-06 -8.97165e-06 -8.87604e-05 -3.30409e-05 0.0318612 -0.00167434 -0.0211738 0.0005018 812.99 0.00418867 -0.00418871 3 
792 1 1 -0.00405581 0.00746721 0.000483885 0 0 0 -1.0858e-06 -3.2308e-06 8.65952e-06 -1.28995e-05 -4.88463e-05 -1.9034e-05 0.00051025 -0.0110403 0.00641923 0.000502072 849.293 0.00418867 -0.00418873 5 
480 1 1 -0.00473682 0.0069825 0.000997773 0 0 0 3.21405e-06 -1.17068e-05 1.11502e-05 -1.9014e-05 -9.91371e-05 -6.53115e-05 -0.0230371 -0.00430988 0.0343941 0.000501952 833.243 0.00418867 -0.00418871 5 
220 1 1 -0.00320276 0.00697189 0.000488461 0 0 0 7.15431e-06 1.1017e-06 1.99827e-05 -7.09504e-06 -2.77597e-05 -4.29805e-05 -0.00283054 -0.00150511 0.00414856 0.000502197 865.884 0.00418867 -0.00418872 6 
2336 1 1 -0.00229921 0.00656489 0.000484526 0 0 0 8.95653e-06 1.256e-06 2.04641e-05 -3.33645e-06 -2.38401e-05 -5.0548e-05 -0.00512194 0.00630091 0.00337774 0.000502309 880.83 0.00418867 -0.0041887 4 