ITEM: TIMESTEP
2839000
ITEM: NUMBER OF ENTRIES
31282
ITEM: BOX BOUNDS mm pp mm
-0.01 0.01
-0.0075 0.0075
0 0.03
ITEM: ENTRIES c_fc[1] c_fc[2] c_fc[3] c_fc[4] c_fc[5] c_fc[6] c_fc[7] c_fc[8] c_fc[9] c_fc[10] c_fc[11] c_fc[12] c_fc[13] c_fc[14] 
-0.00949803 -0.00676525 0.000482949 -0.00951261 0.00724626 0.000491025 1360 1303 1 6.26667 39.1068 5.0593 1.93971e-08 -0.011759 
-0.00949803 -0.00676525 0.000482949 -0.00951481 -0.00578033 0.000490202 1360 1295 0 8.61847 -57.0991 6.61961 2.49263e-08 -0.0110637 
-0.00949803 -0.00676525 0.000482949 -0.00856358 -0.00643132 0.000491206 1360 620 0 -23.8579 -6.88578 -4.92286 1.43435e-08 0.0259351 
-0.00949803 -0.00676525 0.000482949 -0.00952599 -0.00710373 0.00139917 1360 1666 0 3.65128 30.8101 -100.544 3.72387e-08 -0.00730105 
-0.00832563 -0.00739928 0.000464409 -0.00870062 0.00673197 0.000692923 1101 606 1 40.0082 125.552 -33.6885 4.40193e-08 -0.0166003 
-0.00832563 -0.00739928 0.000464409 -0.00761034 -0.006785 0.000712756 1101 2577 0 -102.381 -63.6658 -45.4516 4.21769e-08 0.0330732 
-0.00832563 -0.00739928 0.000464409 -0.00856358 -0.00643132 0.000491206 1101 620 0 2.95984 -8.88559 1.44727 7.46877e-09 -0.00215033 
-0.00832563 -0.00739928 0.000464409 -0.00855137 -0.00699602 0.00130836 1101 2535 0 54.7137 -78.8233 -202.252 6.10988e-08 -0.0185112 
-0.00761034 -0.006785 0.000712756 -0.00776776 -0.00583757 0.000487522 2577 1012 0 10.2831 -53.729 15.8164 2.48525e-08 -0.00467475 
-0.00761034 -0.006785 0.000712756 -0.00675587 -0.00693196 0.00116155 2577 1795 0 -111.942 -0.337744 -51.2444 4.10195e-08 0.0318445 
-0.00761034 -0.006785 0.000712756 -0.00763415 -0.00618102 0.00150472 2577 1743 0 -0.721877 -9.5991 -10.0237 9.7042e-09 0.00171468 
-0.00606289 -0.00689205 0.000474306 -0.00652826 0.00723981 0.000498795 2282 1384 1 20.6899 66.3984 1.99869 2.80522e-08 -0.0025841 
-0.00606289 -0.00689205 0.000474306 -0.00598494 -0.00589839 0.000476426 2282 2369 0 0.235097 -15.238 -0.260752 1.03565e-08 0.000766334 
-0.00606289 -0.00689205 0.000474306 -0.00675587 -0.00693196 0.00116155 2282 1795 0 94.169 3.67273 -76.8727 4.09343e-08 -0.0241494 
-0.00606289 -0.00689205 0.000474306 -0.00544426 -0.00644717 0.00107459 2282 2658 0 -121.085 -65.8228 -106.083 5.17759e-08 0.0217784 
-0.00487641 -0.00698551 0.000484716 -0.00405581 0.00746721 0.000483885 1904 792 1 -53.6903 39.4549 -12.9001 2.76087e-08 0.0137744 
-0.00487641 -0.00698551 0.000484716 -0.00544426 -0.00644717 0.00107459 1904 2658 0 54.8666 -46.7461 -77.7535 3.71248e-08 -0.0179631 
-0.00372635 -0.00665345 0.000762224 -0.00405581 0.00746721 0.000483885 2537 792 1 46.5399 91.9063 44.5912 3.86598e-08 -0.0107642 
-0.00372635 -0.00665345 0.000762224 -0.00287179 -0.00705471 0.000483861 2537 1266 0 -74.8947 21.9044 25.7243 3.15022e-08 0.0127912 
-0.00372635 -0.00665345 0.000762224 -0.00396646 -0.00728405 0.0014927 2537 2230 0 3.11708 17.8757 -21.281 1.5462e-08 -0.00247349 
-0.00372635 -0.00665345 0.000762224 -0.00391139 -0.00580733 0.00121012 2537 227 0 25.2376 -131.687 -49.0347 4.54133e-08 -0.00374228 
-0.00287179 -0.00705471 0.000483861 -0.00189498 -0.00698279 0.000484493 1266 1738 0 -113.273 -5.08426 -6.31277 3.92429e-08 0.0121849 
-0.00287179 -0.00705471 0.000483861 -0.00268072 -0.00607627 0.00047332 1266 219 0 -5.13732 -18.118 0.338867 1.19381e-08 0.0019191 
-0.00189498 -0.00698279 0.000484493 -0.000990654 -0.00719177 0.000787723 1738 599 0 -117.38 43.5048 -55.8348 4.41068e-08 0.0060776 
-0.00189498 -0.00698279 0.000484493 -0.00170199 -0.00601582 0.000487352 1738 1971 0 -1.41457 -73.6875 3.17031 2.92382e-08 0.00104017 
-0.00189498 -0.00698279 0.000484493 -0.00182963 0.00741081 0.00126491 1738 603 1 -11.4673 29.6591 -37.3293 2.23547e-08 0.00109626 
-0.00189498 -0.00698279 0.000484493 -0.00215698 -0.00656826 0.00135446 1738 2311 0 3.27629 -4.71282 -12.1636 9.55015e-09 -0.000217811 
-9.48632e-05 -0.00741138 0.000471609 -0.000990654 -0.00719177 0.000787723 1115 599 0 128.104 -26.8367 -69.6589 4.64245e-08 -0.00257355 
-9.48632e-05 -0.00741138 0.000471609 -0.000402406 -0.00646897 0.000480902 1115 1338 0 20.2065 -40.1751 -1.54354 2.11599e-08 8.41693e-05 
-9.48632e-05 -0.00741138 0.000471609 -0.000107665 -0.0071773 0.0014311 1115 6746 0 -3.92854 -11.1703 -62.8679 2.68284e-08 0.00014 
-0.000990654 -0.00719177 0.000787723 -0.00140694 0.00697777 0.000482135 599 500 1 41.0997 107.368 52.1783 4.18529e-08 -0.00262234 
-0.000990654 -0.00719177 0.000787723 -0.000402406 -0.00646897 0.000480902 599 1338 0 -56.2092 -78.5872 38.3111 3.69871e-08 0.0024084 
-0.000990654 -0.00719177 0.000787723 -0.00110616 -0.00712188 0.00174561 599 2152 0 24.9116 -30.724 -202.421 5.80204e-08 -0.00120747 
-0.00951481 -0.00578033 0.000490202 -0.00879291 -0.00511199 0.000490919 1295 1145 0 -55.6258 -37.0537 -3.04914 2.74071e-08 0.043148 
-0.00951481 -0.00578033 0.000490202 -0.00947074 -0.00517534 0.00126988 1295 2266 0 -9.98421 -24.7079 -34.5803 2.05984e-08 0.00800145 
-0.00856358 -0.00643132 0.000491206 -0.00776776 -0.00583757 0.000487522 620 1012 0 -18.9479 -16.2275 -4.20818 1.43688e-08 0.0187321 
-0.00856358 -0.00643132 0.000491206 -0.00855137 -0.00699602 0.00130836 620 2535 0 -2.09756 11.9854 -18.2245 1.31734e-08 -0.00573962 
-0.00856358 -0.00643132 0.000491206 -0.00845935 -0.00572944 0.00118531 620 300 0 -5.11972 -16.0589 -19.4216 1.45958e-08 0.00660358 
-0.00776776 -0.00583757 0.000487522 -0.00687693 -0.00599462 0.000889124 1012 1283 0 -36.3459 0.779769 -20.9354 2.01271e-08 0.0215749 
-0.00776776 -0.00583757 0.000487522 -0.00783898 -0.00485503 0.000480309 1012 218 0 -5.46246 -64.5519 4.36979 2.68806e-08 0.00321682 
-0.00776776 -0.00583757 0.000487522 -0.00845935 -0.00572944 0.00118531 1012 300 0 29.3268 -1.68903 -35.6948 2.15694e-08 -0.0149231 
-0.00687693 -0.00599462 0.000889124 -0.00598494 -0.00589839 0.000476426 1283 2369 0 -49.1713 -6.236 23.5372 2.42829e-08 0.0251979 
-0.00687693 -0.00599462 0.000889124 -0.00675587 -0.00693196 0.00116155 1283 1795 0 -13.0938 73.2704 -15.7658 3.00646e-08 0.00603573 
-0.00687693 -0.00599462 0.000889124 -0.00763415 -0.00618102 0.00150472 1283 1743 0 18.2663 8.88598 -14.6972 1.43052e-08 -0.0125603 
-0.00687693 -0.00599462 0.000889124 -0.00713767 -0.00507733 0.00112997 1283 2593 0 7.65279 -75.1406 -14.0098 2.99935e-08 -0.00128711 
-0.00598494 -0.00589839 0.000476426 -0.00591828 -0.00491144 0.000474298 2369 2561 0 -10.1658 -47.1924 6.64544 2.21676e-08 0.00476135 
-0.00598494 -0.00589839 0.000476426 -0.00544426 -0.00644717 0.00107459 2369 2658 0 -65.9145 62.5051 -100.988 4.36984e-08 0.0184335 
-0.00598494 -0.00589839 0.000476426 -0.00619934 -0.00536868 0.00128368 2369 2116 0 12.1595 -19.5094 -43.0439 2.22992e-08 -0.00141937 
-0.00487324 -0.00584139 0.000509718 -0.00544426 -0.00644717 0.00107459 574 2658 0 4.5534e-05 -0.00341434 -0.00357671 7.03101e-12 -0.00414965 
-0.00268072 -0.00607627 0.00047332 -0.00170199 -0.00601582 0.000487352 219 1971 0 -105.532 3.66868 -16.7377 3.73949e-08 0.00967438 
-0.00268072 -0.00607627 0.00047332 -0.0030781 -0.00516815 0.000483215 219 323 0 21.7696 -37.7294 5.54174 2.07631e-08 -0.00433093 
-0.00268072 -0.00607627 0.00047332 -0.0029581 -0.00595422 0.00139321 219 1581 0 58.6034 -1.42677 -186.321 5.58273e-08 -0.00761307 
-0.00170199 -0.00601582 0.000487352 -0.00082578 -0.00557284 0.00047812 1971 1180 0 -85.4172 -49.0803 13.205 3.57796e-08 0.00548252 
-0.00170199 -0.00601582 0.000487352 -0.00208734 -0.00510659 0.000493153 1971 615 0 23.3492 -59.4748 -6.56156 2.68929e-08 -0.00302219 
-0.00170199 -0.00601582 0.000487352 -0.0011237 -0.0062834 0.00123093 1971 1507 0 -57.656 37.675 -94.0811 3.98002e-08 0.00406549 
-0.000402406 -0.00646897 0.000480902 -0.00082578 -0.00557284 0.00047812 1338 1180 0 14.853 -43.5385 -6.83477 2.15416e-08 -0.000938472 
-0.000402406 -0.00646897 0.000480902 -0.000232842 -0.00585337 0.00122348 1338 6867 0 -32.2086 -74.6759 -83.1154 3.97466e-08 -0.000757529 
-0.00082578 -0.00557284 0.00047812 -0.000232842 -0.00585337 0.00122348 1180 6867 0 -19.1311 12.3178 -29.5372 1.8758e-08 0.000355335 
-0.00082578 -0.00557284 0.00047812 -0.00055382 -0.00493981 0.00116474 1180 1630 0 -42.9067 -106.833 -116.059 4.99208e-08 3.67119e-08 
-0.00879291 -0.00511199 0.000490919 -0.00783898 -0.00485503 0.000480309 1145 218 0 -45.458 -13.8233 -7.65375 2.20315e-08 0.0299657 
-0.00879291 -0.00511199 0.000490919 -0.00874217 -0.00412726 0.000494308 1145 413 0 3.21802 -55.9515 -0.257725 2.45104e-08 -0.00319748 
-0.00879291 -0.00511199 0.000490919 -0.00845935 -0.00572944 0.00118531 1145 300 0 -20.7043 29.5709 -34.98 2.28479e-08 0.0121911 
-0.00783898 -0.00485503 0.000480309 -0.00760414 -0.00389289 0.000480637 218 1175 0 -13.2803 -35.5304 1.18464 1.89241e-08 0.00631357 
-0.00783898 -0.00485503 0.000480309 -0.00713767 -0.00507733 0.00112997 218 2593 0 -59.6742 4.35568 -65.3359 3.28883e-08 0.0226731 
-0.00783898 -0.00485503 0.000480309 -0.00778902 -0.00436031 0.00132985 218 2149 0 2.03088 -33.5906 -60.1082 2.81522e-08 7.18838e-06 
-0.00591828 -0.00491144 0.000474298 -0.00494614 -0.00480712 0.000493564 2561 1657 0 -115.317 -21.5191 -9.95809 4.00736e-08 0.0318421 
-0.00591828 -0.00491144 0.000474298 -0.00678454 -0.00444638 0.00047591 2561 1378 0 66.069 -46.7962 12.4534 3.12445e-08 -0.0219928 
-0.00591828 -0.00491144 0.000474298 -0.00619934 -0.00536868 0.00128368 2561 2116 0 28.7581 71.558 -145.958 4.99115e-08 -0.00926798 
-0.00591828 -0.00491144 0.000474298 -0.00604804 -0.00437981 0.00130003 2561 1661 0 7.78074 -25.3181 -31.8169 2.00722e-08 -8.64447e-06 
-0.0040631 -0.00522377 0.000466871 -0.00494614 -0.00480712 0.000493564 1998 1657 0 110.619 -64.3263 -19.4636 4.24892e-08 -0.0206843 
-0.0040631 -0.00522377 0.000466871 -0.0030781 -0.00516815 0.000483215 1998 323 0 -66.0342 -7.23745 -11.9682 2.76092e-08 0.0144958 
-0.0040631 -0.00522377 0.000466871 -0.00412845 -0.0042458 0.000474754 1998 1823 0 11.3899 -105.149 -4.78218 3.74712e-08 -0.000723918 
-0.0040631 -0.00522377 0.000466871 -0.00391139 -0.00580733 0.00121012 1998 227 0 -49.7871 171.79 -229.114 7.26717e-08 0.00272368 
-0.00494614 -0.00480712 0.000493564 -0.00412845 -0.0042458 0.000474754 1657 1823 0 -33.1847 -18.3271 -5.85066 1.8927e-08 0.0132907 
-0.00494614 -0.00480712 0.000493564 -0.00509254 -0.00411544 0.00117556 1657 730 0 22.4663 -68.846 -54.4055 3.35935e-08 -0.00632168 
-0.0030781 -0.00516815 0.000483215 -0.00208734 -0.00510659 0.000493153 323 615 0 -36.7254 -0.621485 -5.09936 1.86421e-08 0.00841822 
-0.0030781 -0.00516815 0.000483215 -0.0035128 -0.00459322 0.00115663 323 639 0 21.607 -39.3354 -53.0687 2.81975e-08 -0.00670573 
-0.0030781 -0.00516815 0.000483215 -0.00263131 -0.00502312 0.00135181 323 2362 0 -33.42 -6.57036 -53.5918 2.66994e-08 0.00426369 
-0.00208734 -0.00510659 0.000493153 -0.00170327 -0.00539793 0.0013682 615 1230 0 -4.44642 3.53457 -10.7354 8.93965e-09 0.00193711 
-0.00208734 -0.00510659 0.000493153 -0.00189035 -0.00440654 0.00116035 615 1726 0 -11.1657 -56.9211 -36.289 2.77823e-08 -0.000729805 
-0.00874217 -0.00412726 0.000494308 -0.00849244 -0.00317249 0.000491972 413 616 0 -16.4098 -49.0775 -2.32408 2.33074e-08 0.0107877 
-0.00874217 -0.00412726 0.000494308 -0.00945506 -0.00413183 0.00118549 413 716 0 16.7033 -4.14119 -14.502 1.32649e-08 -0.0210664 
-0.00874217 -0.00412726 0.000494308 -0.00857561 -0.00370245 0.00138257 413 2682 0 0.153106 -2.20756 -4.63732 4.96957e-09 0.00289258 
-0.00760414 -0.00389289 0.000480637 -0.00678454 -0.00444638 0.00047591 1175 1378 0 -37.8879 25.9463 -8.94871 2.15692e-08 0.0228843 
-0.00760414 -0.00389289 0.000480637 -0.00778902 -0.00436031 0.00132985 1175 2149 0 3.32029 28.7695 -47.8401 2.44368e-08 -0.00716776 
-0.00760414 -0.00389289 0.000480637 -0.00774949 -0.00318932 0.0011462 1175 977 0 17.3207 -77.2272 -60.7937 3.59307e-08 -0.0135916 
-0.00678454 -0.00444638 0.00047591 -0.00659149 -0.0036232 0.000963734 1378 1387 0 -21.527 -103.265 -68.4497 4.19302e-08 0.0126752 
-0.00678454 -0.00444638 0.00047591 -0.00713767 -0.00507733 0.00112997 1378 2593 0 36.8022 88.0965 -92.2463 4.33765e-08 -0.0159725 
-0.00659149 -0.0036232 0.000963734 -0.00574275 -0.00382554 0.000486148 1387 1741 0 -19.3496 1.29302 13.1203 1.36813e-08 0.013233 
-0.00659149 -0.0036232 0.000963734 -0.00685724 -0.00278295 0.000496049 1387 2278 0 3.2773 -9.74104 5.0172 8.5774e-09 -0.0050395 
-0.00659149 -0.0036232 0.000963734 -0.00604804 -0.00437981 0.00130003 1387 1661 0 -20.0672 34.5147 -12.4187 2.02216e-08 0.00888201 
-0.00659149 -0.0036232 0.000963734 -0.00686366 -0.00285094 0.00149083 1387 1641 0 40.141 -118.008 -68.5253 4.54407e-08 -0.0214602 
-0.00659149 -0.0036232 0.000963734 -0.00573669 -0.0032243 0.00127523 1387 640 0 -25.5286 -11.3235 -5.6432 1.56602e-08 0.0128712 
-0.00574275 -0.00382554 0.000486148 -0.00509254 -0.00411544 0.00117556 1741 730 0 -20.7783 11.3905 -33.8009 1.98655e-08 0.0104243 
-0.00574275 -0.00382554 0.000486148 -0.00573669 -0.0032243 0.00127523 1741 640 0 -2.55293 -16.3202 -31.4907 1.80231e-08 -0.00138012 
-0.00412845 -0.0042458 0.000474754 -0.00337103 -0.00365446 0.000706592 1823 1512 0 -42.7765 -35.4587 -10.292 2.47539e-08 0.00872449 
-0.00412845 -0.0042458 0.000474754 -0.00476232 -0.00349292 0.000486419 1823 2011 0 55.2284 -57.6186 14.0974 3.10448e-08 -0.00998567 
-0.00412845 -0.0042458 0.000474754 -0.0035128 -0.00459322 0.00115663 1823 639 0 -48.599 31.9119 -74.2254 3.45086e-08 0.00948255 
-0.00412845 -0.0042458 0.000474754 -0.00416999 -0.00371541 0.00129262 1823 2037 0 -3.41511 -64.3075 -121.641 4.43927e-08 0.000156694 
-0.00337103 -0.00365446 0.000706592 -0.00256265 -0.00417532 0.000486039 1512 2717 0 -62.6045 28.4719 6.2099 2.79361e-08 0.00999886 
-0.00337103 -0.00365446 0.000706592 -0.00394708 -0.0028831 0.000480768 1512 1241 0 28.3723 -47.3456 5.08633 2.42343e-08 -0.00672474 
-0.00337103 -0.00365446 0.000706592 -0.0025195 -0.00318223 0.00051398 1512 403 0 -33.6352 -15.0859 4.31431 1.86837e-08 0.00863859 
-0.00337103 -0.00365446 0.000706592 -0.00416999 -0.00371541 0.00129262 1512 2037 0 25.0909 -1.4991 -25.9026 1.81818e-08 -0.00737688 
-0.00256265 -0.00417532 0.000486039 -0.0025195 -0.00318223 0.00051398 2717 403 0 2.61796 -29.2245 0.306405 1.59581e-08 0.00042651 
-0.00256265 -0.00417532 0.000486039 -0.00274874 -0.00404043 0.00146029 2717 1539 0 1.40856 0.353928 -5.97698 5.61207e-09 -0.00109544 
-0.00256265 -0.00417532 0.000486039 -0.00189035 -0.00440654 0.00116035 2717 1726 0 -73.8773 45.8023 -71.2022 3.85903e-08 0.0064791 
-0.000214197 -0.00431917 0.000464819 -0.000987873 -0.00409607 0.000985461 2319 309 0 216.283 -46.823 -173.362 7.08932e-08 -0.00324252 
-0.000214197 -0.00431917 0.000464819 -0.00055382 -0.00493981 0.00116474 2319 1630 0 9.73343 20.6029 -15.1936 1.51461e-08 -0.000201237 
-0.000214197 -0.00431917 0.000464819 -0.000129203 -0.00366855 0.00121434 2319 5886 0 2.52228 -16.017 -16.9856 1.36762e-08 0.000215649 
-0.000987873 -0.00409607 0.000985461 -0.000658388 -0.00332195 0.000474818 309 1281 0 -17.0251 -66.6937 50.3107 3.22822e-08 0.00190946 
-0.000987873 -0.00409607 0.000985461 -0.0011893 -0.00457305 0.00182688 309 619 0 22.1296 33.8132 -48.2917 2.63509e-08 -0.000946192 
-0.000987873 -0.00409607 0.000985461 -0.00055382 -0.00493981 0.00116474 309 1630 0 -63.3337 211.204 -38.3977 6.06649e-08 0.00259676 
-0.000987873 -0.00409607 0.000985461 -0.00189035 -0.00440654 0.00116035 309 1726 0 172.817 47.5243 -30.5616 5.34569e-08 -0.00953708 
-0.000987873 -0.00409607 0.000985461 -0.000129203 -0.00366855 0.00121434 309 5886 0 -59.0624 -43.3631 -9.68204 2.92253e-08 0.00239714 
-0.000987873 -0.00409607 0.000985461 -0.00143268 -0.00333755 0.0013636 309 1310 0 160.758 -229.307 -96.7397 7.33601e-08 -0.00385176 
-0.00951252 -0.00345394 0.000475509 -0.00945506 -0.00413183 0.00118549 2212 716 0 -11.1649 42.5359 -49.7838 2.73785e-08 0.0265271 
-0.00951252 -0.00345394 0.000475509 -0.009505 -0.0029456 0.00130719 2212 1276 0 -22.4424 -53.8912 -105.522 4.02579e-08 0.00964183 
-0.00849244 -0.00317249 0.000491972 -0.00896591 -0.00233769 0.000730966 616 1699 0 21.6481 -32.7165 -8.8886 1.97233e-08 -0.0249665 
-0.00849244 -0.00317249 0.000491972 -0.00785389 -0.00241068 0.000497188 616 1246 0 -14.5423 -14.6138 -2.0036 1.26588e-08 0.0142944 
-0.00849244 -0.00317249 0.000491972 -0.00774949 -0.00318932 0.0011462 616 977 0 -27.4047 -2.84705 -25.5782 1.88369e-08 0.017271 
-0.00685724 -0.00278295 0.000496049 -0.00586703 -0.00264289 0.000486338 2278 1466 0 -4.86684 -0.378115 -0.874484 4.85848e-09 0.0069058 
-0.00685724 -0.00278295 0.000496049 -0.00706265 -0.00180749 0.000465282 2278 1853 0 2.66118 -11.2694 2.22642 8.68038e-09 -0.0116964 
-0.00685724 -0.00278295 0.000496049 -0.00686366 -0.00285094 0.00149083 2278 1641 0 2.2391 2.06612 -12.5806 9.20241e-09 -0.00443755 
-0.00586703 -0.00264289 0.000486338 -0.00573669 -0.0032243 0.00127523 1466 640 0 -12.1694 28.3659 -41.2371 2.32031e-08 0.00886424 
-0.00586703 -0.00264289 0.000486338 -0.00626464 -0.00213227 0.00123477 1466 814 0 14.2642 -26.0406 -35.8188 2.16975e-08 -0.00614714 
-0.00476232 -0.00349292 0.000486419 -0.00486414 -0.00251508 0.000467481 2011 2724 0 11.6435 -83.9915 -10.4885 3.23314e-08 -0.00159605 
-0.00476232 -0.00349292 0.000486419 -0.00509254 -0.00411544 0.00117556 2011 730 0 31.2789 35.0752 -53.5481 2.85643e-08 -0.0125783 
-0.00486414 -0.00251508 0.000467481 -0.00394708 -0.0028831 0.000480768 2724 1241 0 -52.9551 20.3017 -7.10065 2.48652e-08 0.0122688 
-0.00486414 -0.00251508 0.000467481 -0.00530225 -0.00233749 0.00130663 2724 1516 0 104.294 -65.4463 -199.037 6.29005e-08 -0.0245578 
-0.00486414 -0.00251508 0.000467481 -0.00431717 -0.00243234 0.0012821 2724 62 0 -43.1631 -18.3203 -61.5847 3.0262e-08 0.00650432 
-0.00394708 -0.0028831 0.000480768 -0.00336954 -0.0027348 0.00125937 1241 2636 0 -49.5734 -19.805 -89.1057 3.68221e-08 0.00714396 
-0.00394708 -0.0028831 0.000480768 -0.00431717 -0.00243234 0.0012821 1241 62 0 13.153 -14.8561 -38.0973 2.05146e-08 -0.00578858 
-0.0025195 -0.00318223 0.00051398 -0.00156126 -0.00294084 0.000481155 403 536 0 -56.9286 -7.46555 4.12311 2.49715e-08 0.00850886 
-0.0025195 -0.00318223 0.00051398 -0.00297969 -0.00230541 0.000474931 403 1863 0 25.9113 -36.8448 0.497556 2.12111e-08 -0.00363242 
-0.00156126 -0.00294084 0.000481155 -0.000658388 -0.00332195 0.000474818 536 1281 0 -102.48 41.6174 -5.01173 3.86104e-08 0.00543046 
-0.00156126 -0.00294084 0.000481155 -0.00202344 -0.00207554 0.000488744 536 1770 0 54.3492 -88.4547 14.0989 3.697e-08 -0.00290269 
-0.00156126 -0.00294084 0.000481155 -0.00143268 -0.00333755 0.0013636 536 1310 0 -17.1655 57.6859 -124.409 4.47095e-08 0.000589548 
-0.00156126 -0.00294084 0.000481155 -0.00120788 -0.00218515 0.00103406 536 2727 0 -2.77048 -4.70246 -4.57581 6.2311e-09 0.00120233 
-0.000658388 -0.00332195 0.000474818 -0.000281772 -0.00241967 0.000494372 1281 6561 0 -48.2434 -115.343 -18.5066 4.19412e-08 0.00239614 
-0.000658388 -0.00332195 0.000474818 -0.000129203 -0.00366855 0.00121434 1281 5886 0 -79.536 71.3439 -120.16 4.92216e-08 0.000753142 
-0.00951181 -0.00154847 0.000496499 -0.00896591 -0.00233769 0.000730966 2621 1699 0 -24.4552 33.8728 -11.2139 2.07162e-08 0.0234109 
-0.00951181 -0.00154847 0.000496499 -0.00951473 -0.000552071 0.000534826 2621 2166 0 0.784558 -6.35612 -1.27056 5.82513e-09 -0.000474763 
-0.00951181 -0.00154847 0.000496499 -0.00866495 -0.00104001 0.000455822 2621 2478 0 -32.4799 -23.1755 1.3029 1.96093e-08 0.026625 
-0.00896591 -0.00233769 0.000730966 -0.009505 -0.0029456 0.00130719 1699 1276 0 7.0092 4.96682 -5.42534 7.81849e-09 -0.0166289 
-0.00896591 -0.00233769 0.000730966 -0.00856821 -0.00199924 0.00157699 1699 1846 0 -9.8163 -3.81051 -14.6772 1.14644e-08 0.0108847 
-0.00785389 -0.00241068 0.000497188 -0.00706265 -0.00180749 0.000465282 1246 1853 0 -12.263 -11.6499 -1.8661 1.10521e-08 0.0113809 
-0.00785389 -0.00241068 0.000497188 -0.00790248 -0.00149325 0.000894689 1246 2259 0 -0.156495 -1.1732 -0.385226 1.93372e-09 -0.0020352 
-0.00785389 -0.00241068 0.000497188 -0.00764111 -0.00226705 0.00146069 1246 1043 0 -3.66591 -3.07257 -9.78634 8.19575e-09 0.000760016 
-0.00706265 -0.00180749 0.000465282 -0.00790248 -0.00149325 0.000894689 1853 2259 0 18.5538 -3.13784 -10.1875 1.28702e-08 -0.017532 
-0.00706265 -0.00180749 0.000465282 -0.00676178 -0.000858027 0.000513048 1853 2518 0 -5.20363 -11.078 -2.42236 8.97305e-09 0.0113426 
-0.00706265 -0.00180749 0.000465282 -0.00703171 -0.00150782 0.00137514 1853 1551 0 -17.2687 -47.9672 -261.284 6.81306e-08 0.0016852 
-0.00607013 -0.00157469 0.000470497 -0.00676178 -0.000858027 0.000513048 112 2518 0 7.92983 -12.0064 0.416173 9.86992e-09 -0.00895492 
-0.00607013 -0.00157469 0.000470497 -0.00547588 -0.000795549 0.000475198 112 143 0 -66.0803 -78.2887 -13.2256 3.66714e-08 0.0154287 
-0.00607013 -0.00157469 0.000470497 -0.00626464 -0.00213227 0.00123477 112 814 0 34.6538 114.655 -166.996 5.78998e-08 -0.0064955 
-0.00607013 -0.00157469 0.000470497 -0.00616999 -0.00104191 0.00129731 112 1807 0 13.7467 -27.2343 -40.6803 2.28671e-08 -0.00416691 
-0.00377154 -0.00173766 0.000459949 -0.00297969 -0.00230541 0.000474931 2470 1863 0 -113.755 93.4913 -4.14867 4.65449e-08 0.0128317 
-0.00377154 -0.00173766 0.000459949 -0.00311826 -0.00119639 0.000947363 2470 1293 0 -76.3618 -51.8608 -78.2102 4.04322e-08 0.00794858 
-0.00377154 -0.00173766 0.000459949 -0.00427788 -0.00139697 0.00119175 2470 2210 0 178.212 -86.543 -265.464 7.88588e-08 -0.0249689 
-0.00297969 -0.00230541 0.000474931 -0.00202344 -0.00207554 0.000488744 1863 1770 0 -85.7992 -12.9289 0.476023 3.28223e-08 0.0115387 
-0.00297969 -0.00230541 0.000474931 -0.00336954 -0.0027348 0.00125937 1863 2636 0 36.5199 73.6155 -114.706 4.49208e-08 -0.00937361 
-0.00297969 -0.00230541 0.000474931 -0.00272091 -0.00197557 0.00136658 1863 1398 0 -20.8869 -18.9847 -70.574 3.00738e-08 0.00284563 
-0.00202344 -0.00207554 0.000488744 -0.00216431 -0.00110427 0.000493021 1770 115 0 13.6627 -99.7097 -9.39517 3.62985e-08 -0.000581739 
-0.00202344 -0.00207554 0.000488744 -0.00120788 -0.00218515 0.00103406 1770 2727 0 -52.8059 4.65721 -39.725 2.74958e-08 0.00502895 
-0.000705457 -0.0015361 0.000474591 -0.000281772 -0.00241967 0.000494372 2195 6561 0 -51.1469 98.1318 -3.15704 3.86303e-08 0.000155477 
-0.000705457 -0.0015361 0.000474591 -0.00128373 -0.000862776 0.000874537 2195 197 0 93.3131 -110.321 -62.1673 4.86748e-08 -0.00588684 
-0.000705457 -0.0015361 0.000474591 -0.000313906 -0.00060951 0.000503908 2195 1095 0 -0.00291946 0.0015075 -0.00815463 1.83764e-11 0.00406859 
-0.000705457 -0.0015361 0.000474591 -0.00120788 -0.00218515 0.00103406 2195 2727 0 20.3541 23.1365 -17.0531 1.80603e-08 -0.00313316 
-0.000705457 -0.0015361 0.000474591 -9.81157e-06 -0.00140904 0.00114852 2195 7512 0 -83.5714 -13.7369 -104.037 4.36187e-08 0.000604739 
-0.000281772 -0.00241967 0.000494372 0.000241348 -0.00234576 0.00132818 6561 5938 0 -39.7853 -13.4515 -53.4801 2.78215e-08 -0.000692999 
-0.00951473 -0.000552071 0.000534826 -0.00866495 -0.00104001 0.000455822 2166 2478 0 -57.7654 35.2012 16.88 2.8157e-08 0.0329483 
-0.00951473 -0.000552071 0.000534826 -0.00865861 -5.01752e-05 0.000492765 2166 754 0 -15.8983 -11.936 2.42317 1.23567e-08 0.0236715 
-0.00951473 -0.000552071 0.000534826 -0.00951517 -3.25838e-06 0.00135602 2166 1432 0 -0.222739 -28.4642 -32.092 2.04765e-08 -0.00291732 
-0.00866495 -0.00104001 0.000455822 -0.00790248 -0.00149325 0.000894689 2478 2259 0 -30.132 14.9983 -17.9584 1.90428e-08 0.0318854 
-0.00866495 -0.00104001 0.000455822 -0.00865861 -5.01752e-05 0.000492765 2478 754 0 -2.88716 -32.3672 -0.741297 1.71116e-08 0.00217073 
-0.00866495 -0.00104001 0.000455822 -0.00861852 -0.00102505 0.00140318 2478 1262 0 -32.3143 10.1107 -344.194 8.11203e-08 0.0213286 
-0.00790248 -0.00149325 0.000894689 -0.00764111 -0.00226705 0.00146069 2259 1043 0 -4.56925 18.0607 -12.622 1.34267e-08 0.00633561 
-0.00790248 -0.00149325 0.000894689 -0.00703171 -0.00150782 0.00137514 2259 1551 0 -17.3643 2.38177 -8.8453 1.22313e-08 0.0178053 
-0.00790248 -0.00149325 0.000894689 -0.00861852 -0.00102505 0.00140318 2259 1262 0 10.1989 -9.75508 -7.06385 1.05107e-08 -0.0160113 
-0.00778606 -0.000545327 0.00049125 -0.00780276 0.000451165 0.000473303 2421 1880 0 2.05669 -11.5154 0.924642 8.63935e-09 -0.00613635 
-0.00778606 -0.000545327 0.00049125 -0.00747712 -0.000628973 0.00142757 2421 173 0 -7.56373 8.06034 -40.6858 2.01921e-08 0.00194775 
-0.00676178 -0.000858027 0.000513048 -0.0068811 0.000128049 0.000483521 2518 783 0 7.22086 -24.44 2.03244 1.44937e-08 -0.00649931 
-0.00676178 -0.000858027 0.000513048 -0.00616999 -0.00104191 0.00129731 2518 1807 0 -4.49462 1.35566 -4.03863 5.6363e-09 0.00469835 
-0.00547588 -0.000795549 0.000475198 -0.00447753 -0.000703267 0.000490418 143 74 0 -0.975167 -0.204827 -0.176344 1.68646e-09 0.00599971 
-0.00547588 -0.000795549 0.000475198 -0.00604743 -0.000134329 0.000922003 143 233 0 56.0843 -70.1306 -25.6673 3.40728e-08 -0.0146247 
-0.00547588 -0.000795549 0.000475198 -0.00507625 3.38764e-05 0.000807144 143 129 0 -53.0367 -90.8048 -39.1628 3.88861e-08 0.0128716 
-0.00547588 -0.000795549 0.000475198 -0.00524342 -0.00135524 0.00123488 143 1559 0 -63.969 87.1228 -122.005 4.93578e-08 0.0069934 
-0.00447753 -0.000703267 0.000490418 -0.00507625 3.38764e-05 0.000807144 74 129 0 3.05354 -2.6834 -1.38465 4.43683e-09 -0.00538365 
-0.00447753 -0.000703267 0.000490418 -0.00367523 -0.000388203 0.000990021 74 2611 0 -15.4545 -3.70342 -12.3758 1.23756e-08 0.00865789 
-0.00447753 -0.000703267 0.000490418 -0.00454859 -0.000482328 0.0014551 74 2167 0 5.83723 -2.12369 -36.4753 1.85041e-08 -0.00146313 
-0.00311826 -0.00119639 0.000947363 -0.00367523 -0.000388203 0.000990021 1293 2611 0 49.6574 -77.9955 7.93327 3.4189e-08 -0.0106392 
-0.00311826 -0.00119639 0.000947363 -0.0028256 -0.000380824 0.000477469 1293 1496 0 -22.0943 -54.5801 44.7325 2.937e-08 0.00441763 
-0.00311826 -0.00119639 0.000947363 -0.00272091 -0.00197557 0.00136658 1293 1398 0 -92.1342 148.778 -58.1764 5.36318e-08 0.00841955 
-0.00311826 -0.00119639 0.000947363 -0.00301894 -0.000634695 0.00174597 1293 1816 0 -11.7908 -68.0634 -72.6996 3.59662e-08 0.00156201 
-0.00216431 -0.00110427 0.000493021 -0.00128373 -0.000862776 0.000874537 115 197 0 -45.4128 -20.6525 -19.3687 2.37381e-08 0.00462414 
-0.00216431 -0.00110427 0.000493021 -0.0028256 -0.000380824 0.000477469 115 1496 0 66.7195 -84.8485 5.2969 3.79472e-08 -0.0106763 
-0.00216431 -0.00110427 0.000493021 -0.00185533 -0.00150797 0.00134665 115 561 0 -9.87646 8.37396 -31.4673 1.75396e-08 0.00128182 
-0.00128373 -0.000862776 0.000874537 -0.00147738 -1.3336e-05 0.000444378 197 109 0 13.0318 -164.008 56.8385 5.14471e-08 -0.00142152 
-0.00128373 -0.000862776 0.000874537 -0.00185533 -0.00150797 0.00134665 197 561 0 40.3225 65.9616 -53.1719 3.42789e-08 -0.00376479 
-0.00128373 -0.000862776 0.000874537 -0.00116571 -0.000654348 0.00182807 197 80 0 -5.45391 -32.9266 -85.2027 3.37814e-08 -0.000265525 
-0.00951197 0.000460911 0.000486928 -0.00865861 -5.01752e-05 0.000492765 2321 754 0 -13.4247 6.19343 -2.56617 1.01327e-08 0.0206595 
-0.00951197 0.000460911 0.000486928 -0.00865424 0.000950109 0.000492773 2321 2262 0 -42.6801 -17.5373 -7.26866 2.15242e-08 0.0339223 
-0.00951197 0.000460911 0.000486928 -0.00951517 -3.25838e-06 0.00135602 2321 1432 0 -3.94054 16.8788 -53.1794 2.42429e-08 -0.00437488 
-0.00865861 -5.01752e-05 0.000492765 -0.00780276 0.000451165 0.000473303 754 1880 0 -24.7483 -12.1438 -4.55044 1.53174e-08 0.0271448 
-0.00865861 -5.01752e-05 0.000492765 -0.00865424 0.000950109 0.000492773 754 2262 0 -0.0935892 -1.25738 -0.235638 1.97187e-09 0.00115367 
-0.00865861 -5.01752e-05 0.000492765 -0.00834239 0.000452526 0.00128534 754 1862 0 -11.2588 -20.8632 -24.6951 1.76548e-08 0.0140146 
-0.00780276 0.000451165 0.000473303 -0.0068811 0.000128049 0.000483521 1880 783 0 -113.194 32.3087 -4.08928 4.01363e-08 0.0431597 
-0.00780276 0.000451165 0.000473303 -0.00865424 0.000950109 0.000492773 1880 2262 0 46.3368 -21.618 -4.71368 2.31183e-08 -0.029398 
-0.00780276 0.000451165 0.000473303 -0.0076015 0.00142532 0.000491424 1880 1456 0 -3.06692 -17.9057 0.94223 1.16515e-08 0.0091389 
-0.00780276 0.000451165 0.000473303 -0.00834239 0.000452526 0.00128534 1880 1862 0 66.3255 -17.8558 -106.98 4.19615e-08 -0.0233223 
-0.00780276 0.000451165 0.000473303 -0.00734916 0.000341857 0.00133781 1880 2003 0 -28.3271 12.1613 -74.4091 3.11203e-08 0.0172416 
-0.0068811 0.000128049 0.000483521 -0.00604743 -0.000134329 0.000922003 783 233 0 -92.2894 46.7571 -50.6726 3.93403e-08 0.0288516 
-0.0068811 0.000128049 0.000483521 -0.00630065 0.000818206 0.000879127 783 2309 0 -34.9837 -48.0645 -38.7236 2.849e-08 0.0144387 
-0.0068811 0.000128049 0.000483521 -0.00734916 0.000341857 0.00133781 783 2003 0 6.52942 -2.97322 -8.72717 8.44899e-09 -0.0108184 
-0.00604743 -0.000134329 0.000922003 -0.00507625 3.38764e-05 0.000807144 233 129 0 -32.6422 -8.6454 2.90662 1.76087e-08 0.0191751 
-0.00604743 -0.000134329 0.000922003 -0.00630065 0.000818206 0.000879127 233 2309 0 22.633 -57.5236 -7.26983 2.60606e-08 -0.00967312 
-0.00604743 -0.000134329 0.000922003 -0.00616999 -0.00104191 0.00129731 233 1807 0 -1.49604 41.7165 -17.289 2.11846e-08 -0.00420567 
-0.00604743 -0.000134329 0.000922003 -0.00646309 0.000216266 0.00175384 233 880 0 11.8597 -12.907 -19.2931 1.46796e-08 -0.0121363 
-0.00604743 -0.000134329 0.000922003 -0.00551149 -0.00042326 0.00170089 233 345 0 -36.113 14.4085 -34.8714 2.3224e-08 0.0143476 
-0.00604743 -0.000134329 0.000922003 -0.00557813 0.000547094 0.00148807 233 834 0 -0.446485 -0.422308 -0.523269 1.45012e-09 0.00253071 
-0.00507625 3.38764e-05 0.000807144 -0.00418302 0.000291795 0.000480239 129 2061 0 -69.7788 -12.7204 13.4254 2.88215e-08 0.0209026 
-0.00507625 3.38764e-05 0.000807144 -0.00526671 0.000934937 0.000479826 129 386 0 22.9789 -109.803 46.8306 4.10292e-08 0.000338218 
-0.00507625 3.38764e-05 0.000807144 -0.00454859 -0.000482328 0.0014551 129 2167 0 -57.9559 39.3509 -58.5612 3.38044e-08 0.0128827 
-0.00507625 3.38764e-05 0.000807144 -0.00557813 0.000547094 0.00148807 129 834 0 22.1304 -18.9615 -39.3357 2.22786e-08 -0.011649 
-0.00418302 0.000291795 0.000480239 -0.00367523 -0.000388203 0.000990021 2061 2611 0 -27.5309 32.0691 -22.9785 2.22403e-08 0.00529819 