ITEM: TIMESTEP
2408000
ITEM: NUMBER OF ATOMS
10670
ITEM: BOX BOUNDS mm pp mm
-0.01 0.01
-0.0075 0.0075
0 0.03
ITEM: ATOMS id type type x y z ix iy iz vx vy vz fx fy fz omegax omegay omegaz radius f_Temp[0] f_heatSource[0] f_heatFlux[0] c_coord[0] 
1360 1 1 -0.00950808 -0.00666977 0.000476856 0 0 0 -8.12473e-06 3.92001e-06 -6.3284e-06 8.26407e-06 -1.6072e-06 5.0193e-06 -0.00791481 -0.0099626 -0.00292742 0.000500336 617.774 0.00418867 -0.00418866 3 
1101 1 1 -0.00836178 -0.00733452 0.000454399 0 0 0 -3.47915e-05 1.18425e-05 -1.21385e-05 5.47557e-05 -6.54707e-06 2.47949e-05 -0.0272858 -0.0725193 0.0212606 0.000500873 689.457 0.00418867 -0.004189 3 
2577 1 1 -0.00761186 -0.00679407 0.000714546 0 0 0 -3.70386e-05 1.45136e-05 -2.43251e-05 0.000349298 5.53539e-05 0.000129947 0.0262155 0.0942853 9.40044e-05 0.000501097 719.28 0.00418867 -0.00419137 4 
2282 1 1 -0.00602925 -0.00691414 0.000473512 0 0 0 2.41419e-05 3.13065e-05 8.16301e-06 8.95257e-05 -1.41855e-05 0.000339683 0.0193925 0.00286908 -0.0334774 0.000501502 773.295 0.00418867 -0.00418651 4 
1904 1 1 -0.0048143 -0.00689682 0.000470849 0 0 0 1.60533e-05 3.01026e-05 2.59764e-05 -0.000142189 6.51946e-06 -0.000148701 -0.0698781 0.00949906 0.0117175 0.000501732 803.973 0.00418867 -0.00418815 3 
792 1 1 -0.00403339 -0.00747777 0.000480494 0 1 0 3.83233e-05 2.16522e-05 3.87847e-05 -0.00062095 -0.00015333 -0.000666412 -0.0504256 0.0312068 -0.00562153 0.000501855 820.305 0.00418867 -0.0041735 4 
1266 1 1 -0.00283352 -0.00711082 0.000479887 0 0 0 2.46184e-05 -5.79971e-06 4.13032e-05 0.000799403 0.000583369 -0.000917132 -0.0065025 0.0431398 -0.0658939 0.000502019 842.194 0.00418867 -0.0041715 4 
1738 1 1 -0.00186188 -0.00700172 0.00047949 0 0 0 3.64309e-05 -1.92992e-05 2.22034e-05 -0.000173584 7.96785e-05 1.43942e-05 0.0334398 0.0345379 0.0515448 0.0005021 852.96 0.00418867 -0.00419177 4 
1115 1 1 -7.86783e-05 -0.0074714 0.000481436 0 0 0 7.365e-05 -8.47878e-06 3.4031e-05 -0.000124438 9.94021e-05 -8.95669e-05 0.0361009 0.107426 -0.0193766 0.000502163 861.364 0.00418867 -0.00418683 6 
1338 1 1 -0.000286434 -0.00650244 0.000493821 0 0 0 6.16715e-05 3.40953e-05 2.72749e-05 -1.38284e-05 -3.39658e-06 -0.00013341 -0.0505305 0.0800037 0.0348029 0.00050216 860.996 0.00418867 -0.00418791 4 
599 1 1 -0.000950306 -0.00717811 0.000803525 0 0 0 7.55868e-05 1.79149e-05 5.72847e-05 -4.75138e-05 1.8716e-05 -0.000163676 -0.0883334 -0.0469504 0.0207419 0.000502141 858.533 0.00418867 -0.00418908 6 
1295 1 1 -0.00951631 -0.00566218 0.000471172 0 0 0 -9.21075e-06 4.68155e-06 -3.1865e-06 4.81476e-06 -8.06488e-06 4.59024e-07 -0.00811871 -0.013918 0.00913368 0.000500333 617.351 0.00418867 -0.00418864 3 
620 1 1 -0.00856901 -0.00633739 0.000496055 0 0 0 -1.56055e-05 1.83495e-05 -1.16841e-05 6.25138e-05 -3.20967e-05 2.46219e-05 -0.0423455 -0.013709 0.0345585 0.00050077 675.73 0.00418867 -0.00418889 4 
1012 1 1 -0.00769798 -0.00584863 0.000484795 0 0 0 -1.71248e-05 1.23935e-05 -8.90096e-06 0.000412992 8.74969e-06 4.05256e-05 -0.0112704 -0.0254577 -0.0209927 0.000501054 713.551 0.00418867 -0.00419058 5 
1283 1 1 -0.00683513 -0.00604134 0.000911123 0 0 0 3.59521e-05 2.3337e-05 -2.66601e-05 -0.000324284 -0.000275685 0.000505645 0.0424447 0.00858407 -0.000826818 0.000501295 745.693 0.00418867 -0.00417245 7 
2369 1 1 -0.00597139 -0.00592364 0.000467118 0 0 0 5.41037e-05 1.67633e-05 4.60569e-05 -0.0125656 -0.0017315 -0.00457292 0.0128554 -0.0414801 -0.0413928 0.000501503 773.378 0.00418867 -0.00403894 6 
574 1 1 -0.00500405 -0.00573066 0.000488427 0 0 0 -0.000729207 0.000329002 -0.000772676 -0.0180518 -0.00427424 -0.0180413 -0.0829186 0.207645 0.257405 0.000501708 800.792 0.00418867 -0.00385314 5 
2537 1 1 -0.00372527 -0.00646796 0.000523594 0 0 0 0.0413917 0.0419338 0.00248228 3.43644e-05 -2.07997e-05 -0.00197087 -80.0517 79.1122 35714.9 0.0005236 3719.67 0.00418867 0 0 
219 1 1 -0.00258013 -0.00616226 0.000473992 0 0 0 -7.59999e-06 4.02388e-06 5.24215e-05 0.00144939 -0.000660815 -0.000390239 0.0429135 0.0378576 0.106899 0.000502032 843.876 0.00418867 -0.00415921 5 
1971 1 1 -0.00160999 -0.00605585 0.000477215 0 0 0 2.45002e-05 1.41622e-05 2.47922e-05 -0.000566246 4.85966e-05 7.27813e-05 -0.0245122 0.0253768 -0.0277355 0.000502098 852.796 0.00418867 -0.00419245 6 
1180 1 1 -0.000738296 -0.00561836 0.00047267 0 0 0 3.99668e-05 2.32924e-05 1.10809e-05 -0.000132611 -3.24789e-05 -8.10632e-05 -0.0399786 0.0397545 0.0205741 0.000502137 857.942 0.00418867 -0.00419003 5 
1145 1 1 -0.00872549 -0.0050803 0.000489402 0 0 0 -1.31793e-05 7.22391e-06 -8.83945e-06 2.54167e-05 -2.27505e-05 1.40593e-05 -0.0172322 -3.62063e-05 -0.00896759 0.000500673 662.752 0.00418867 -0.00418876 5 
218 1 1 -0.00775724 -0.00487343 0.000457237 0 0 0 -1.39372e-05 3.73735e-06 -1.45177e-05 7.44355e-05 -5.84663e-05 4.71433e-05 -0.00882923 -0.0255731 0.00782879 0.000500969 702.178 0.00418867 -0.0041897 4 
1378 1 1 -0.00674685 -0.00450111 0.000462701 0 0 0 4.19815e-06 -2.02324e-05 -6.5878e-06 0.000875562 -0.000515047 0.000390684 0.0179439 -0.0240556 -0.01746 0.000501318 748.669 0.00418867 -0.00419432 5 
2561 1 1 -0.00587167 -0.00494119 0.000486187 0 0 0 8.47458e-05 -5.1715e-05 2.60247e-05 -0.00116663 0.000682014 -0.000355422 0.00240203 0.00654271 0.0200527 0.000501495 772.373 0.00418867 -0.00414995 5 
1998 1 1 -0.00410372 -0.00531248 0.000472812 0 0 0 0.000235353 0.000795683 -0.000809884 0.0139813 0.00218107 -0.0101112 0.157564 -0.0988214 -0.184041 0.000501818 815.421 0.00418867 -0.00412235 6 
1657 1 1 -0.00491623 -0.00474056 0.000488923 0 0 0 4.31417e-05 -6.4967e-05 3.6985e-05 -0.00793316 0.0155761 -0.00632 0.189796 0.081435 -0.0351437 0.000501715 801.715 0.00418867 -0.00395157 6 
323 1 1 -0.00312858 -0.00536792 0.000468656 0 0 0 -1.09383e-05 -3.08581e-05 4.12477e-05 0.0116471 0.00253419 -0.00291219 -0.0362058 -0.0454423 0.0484052 0.00050195 832.944 0.00418867 -0.00403089 4 
615 1 1 -0.00214797 -0.00521955 0.000487159 0 0 0 -6.32992e-07 5.6663e-06 1.1949e-05 0.000589071 -0.000149793 0.000378674 0.00899728 0.0190462 0.00500598 0.000502063 848.06 0.00418867 -0.0041816 5 
1959 1 1 -0.00125213 -0.00477304 0.000474854 0 0 0 4.96397e-05 1.75388e-05 8.05229e-06 -0.000155066 -5.85937e-05 -2.3978e-06 -0.0143625 0.0776956 -0.0285618 0.00050211 854.27 0.00418867 -0.00419024 5 
2725 1 1 -0.00950818 -0.00447609 0.000465262 0 0 0 -7.82466e-06 1.07416e-06 -3.99533e-06 7.49911e-06 -1.95769e-06 9.95948e-07 0.00304124 -0.00890259 0.00427503 0.00050035 619.651 0.00418867 -0.00418865 4 
413 1 1 -0.00850389 -0.00412189 0.000496443 0 0 0 -1.09278e-05 -1.23421e-07 -1.66465e-05 3.07326e-05 -8.15894e-06 1.88055e-05 -0.00372575 -0.0093561 0.00295274 0.000500787 677.891 0.00418867 -0.0041887 3 
1175 1 1 -0.00753408 -0.0039106 0.000492549 0 0 0 -1.23234e-05 -2.14171e-06 -1.63677e-05 0.00020709 -0.000123059 5.7581e-05 0.000207715 -0.0101255 -0.00254281 0.000501033 710.751 0.00418867 -0.00419059 4 
1387 1 1 -0.00663904 -0.00365681 0.000933368 0 0 0 -2.05789e-05 -2.12472e-05 -1.90714e-05 0.000329128 -0.000462414 8.73021e-05 -0.00269217 -0.0276022 -0.00823948 0.000501354 753.468 0.00418867 -0.00419249 7 
1741 1 1 -0.00578905 -0.00375876 0.000464055 0 0 0 5.72181e-06 -5.69748e-06 -7.37027e-07 0.000274986 -0.000338113 0.000264384 0.00717999 0.00423381 0.0414467 0.000501537 777.96 0.00418867 -0.00419312 3 
2011 1 1 -0.00469877 -0.00358473 0.000485043 0 0 0 2.46792e-05 -2.56022e-05 1.32759e-05 -8.45126e-05 -0.000218933 0.000257781 0.0255998 0.00643774 -0.0492192 0.000501772 809.253 0.00418867 -0.00418889 3 
1823 1 1 -0.00403163 -0.0043216 0.000461783 0 0 0 4.5042e-06 -3.69278e-05 2.9892e-05 0.00222191 0.00947635 -0.00237141 0.0474847 0.0406885 0.0614758 0.00050184 818.285 0.00418867 -0.00408548 6 
1512 1 1 -0.00330737 -0.0037212 0.000721054 0 0 0 2.5873e-05 -2.07412e-05 1.03033e-05 -8.03217e-05 1.77364e-05 0.0002244 -0.0286006 -0.082876 0.0372697 0.000501929 830.229 0.00418867 -0.00418233 4 
2717 1 1 -0.00242469 -0.0040725 0.000483625 0 0 0 5.60332e-05 1.46708e-05 4.17441e-06 -0.000234642 1.58013e-05 7.80239e-05 -0.00733973 0.122348 0.0143294 0.000502014 841.482 0.00418867 -0.00419171 3 
2319 1 1 -0.000209272 -0.00430113 0.000468519 0 0 0 4.85897e-05 2.89375e-05 1.13097e-05 -1.65688e-05 1.33794e-05 -1.35043e-05 -0.039048 0.0607114 -0.00339224 0.000502141 858.516 0.00418867 -0.00418889 4 
2212 1 1 -0.00950787 -0.00348284 0.000491491 0 0 0 -7.97926e-06 -3.68607e-06 -4.77165e-06 1.45795e-05 1.03674e-07 7.00859e-06 0.00385906 -0.00323557 -0.0017508 0.000500341 618.415 0.00418867 -0.00418866 3 
616 1 1 -0.00857771 -0.00314004 0.000487759 0 0 0 -1.10508e-05 -7.2049e-06 -1.33453e-05 2.27383e-05 1.20633e-05 2.61945e-05 0.0135186 0.00379008 -0.00250345 0.00050068 663.624 0.00418867 -0.00418862 4 
2278 1 1 -0.00692105 -0.00281174 0.000488109 0 0 0 -9.71246e-06 -1.36527e-05 -1.57023e-05 0.000100081 -8.8717e-06 6.93014e-05 0.020512 -0.0145882 -0.0184125 0.000501292 745.306 0.00418867 -0.00418899 5 
1466 1 1 -0.00594288 -0.00264755 0.000490015 0 0 0 -2.5962e-06 -1.16263e-05 -1.67699e-06 7.82139e-05 3.2666e-05 6.32278e-05 0.00512888 -0.0164629 0.0378679 0.000501499 772.803 0.00418867 -0.0041888 4 
2724 1 1 -0.00495401 -0.00256503 0.000475429 0 0 0 1.50657e-05 9.89309e-06 1.35168e-05 9.47787e-05 5.40636e-05 6.19346e-05 -0.0194475 0.0142108 0.0153537 0.000501679 796.875 0.00418867 -0.00418898 4 
1241 1 1 -0.0040115 -0.00287868 0.000466008 0 0 0 2.75951e-05 1.95321e-05 8.84787e-06 4.6646e-05 -0.000185177 4.94815e-05 -0.0334189 0.0399513 0.0414096 0.000501805 813.733 0.00418867 -0.00419061 4 
403 1 1 -0.00260122 -0.00309429 0.000494858 0 0 0 4.00453e-05 2.47167e-05 2.60195e-05 -0.000229218 -0.000141928 -1.04366e-06 -0.0190314 0.0326181 0.0399564 0.00050201 840.96 0.00418867 -0.00419074 5 
536 1 1 -0.00163065 -0.00304799 0.00045842 0 0 0 4.54646e-05 3.87814e-05 1.56284e-05 -2.85318e-05 2.29675e-05 1.63411e-05 -0.0559284 0.051617 -0.041192 0.000502087 851.284 0.00418867 -0.0041892 5 
1281 1 1 -0.000688333 -0.0033281 0.000479548 0 0 0 4.63199e-05 2.69196e-05 4.49995e-06 -2.7122e-06 2.25624e-05 1.46287e-05 -0.0279896 0.0525423 0.0346314 0.000502132 857.22 0.00418867 -0.00418892 4 
2621 1 1 -0.00951755 -0.00158763 0.000484892 0 0 0 -4.32944e-06 -5.67724e-06 -8.41877e-06 1.70023e-05 -5.37393e-06 2.39332e-05 0.0081124 0.00997783 -0.00624074 0.000500364 621.572 0.00418867 -0.00418868 3 
1699 1 1 -0.0090697 -0.00237194 0.000845041 0 0 0 -1.55619e-05 -1.40132e-05 -1.38163e-05 4.43947e-05 8.99053e-06 2.62593e-05 0.0108385 -0.0320441 -0.00293238 0.000500539 644.884 0.00418867 -0.00418866 4 
2259 1 1 -0.00791291 -0.00152146 0.000871446 0 0 0 -2.17173e-05 -1.82968e-05 -1.51111e-05 0.000138532 2.32826e-06 7.43711e-05 0.00750634 -0.00728777 -0.0138106 0.000500939 698.165 0.00418867 -0.00418867 5 
1246 1 1 -0.007835 -0.00242499 0.000481351 0 0 0 -1.3798e-05 -1.16929e-05 -1.99773e-05 9.11958e-05 1.67326e-05 7.52714e-05 0.0138952 -0.025308 0.00318092 0.000501076 716.407 0.00418867 -0.00418864 5 
1853 1 1 -0.00704338 -0.00182337 0.00044588 0 0 0 -1.18647e-05 -1.38117e-05 -4.63613e-06 9.66393e-05 2.06546e-05 4.48569e-05 0.0227272 -0.0264423 0.0250881 0.000501246 739.093 0.00418867 -0.00418867 5 
112 1 1 -0.00606369 -0.00166563 0.000489443 0 0 0 9.59327e-06 -2.37578e-05 3.29176e-06 7.95548e-05 3.45513e-05 5.24807e-05 0.0264271 0.0257089 -0.0694596 0.000501438 764.734 0.00418867 -0.00418863 4 
2470 1 1 -0.00378704 -0.00158977 0.000448892 0 0 0 2.58033e-05 8.89243e-06 1.50469e-05 5.75539e-05 9.73228e-05 8.38454e-06 -0.0167837 0.0605889 0.148289 0.000501878 823.336 0.00418867 -0.00418868 2 
1863 1 1 -0.00310212 -0.00225786 0.00046367 0 0 0 5.20588e-05 4.23962e-05 1.05672e-05 2.96345e-05 1.23113e-05 2.18008e-05 -0.0707951 0.0604767 -0.0563236 0.000501971 835.775 0.00418867 -0.00418917 5 
1770 1 1 -0.00212414 -0.00219411 0.000488978 0 0 0 5.85135e-05 5.45297e-05 -1.77567e-06 6.21066e-05 9.79757e-05 -2.35624e-05 -0.0795566 0.0373839 0.0198459 0.000502064 848.242 0.00418867 -0.0041888 4 
2727 1 1 -0.00124457 -0.00228924 0.000917703 0 0 0 9.50837e-05 7.04615e-05 1.06703e-05 4.43969e-05 -2.1765e-05 1.03913e-05 0.0240046 0.0148042 -0.00426684 0.000502109 854.155 0.00418867 -0.0041889 7 
2195 1 1 -0.000773976 -0.00158973 0.00044464 0 0 0 6.75789e-05 4.3466e-05 4.54383e-06 1.3199e-05 -3.04591e-05 3.76356e-05 -0.0566155 0.100853 -0.0331708 0.000502132 857.207 0.00418867 -0.00418898 5 
6561 1 1 -0.000277666 -0.00243491 0.00049427 0 0 0 5.11501e-05 2.30963e-05 4.50721e-06 1.75133e-05 1.99384e-05 1.08814e-05 -0.00347695 0.0325589 -0.0384746 0.000502146 859.103 0.00418867 -0.00418907 4 
2166 1 1 -0.00952734 -0.000603987 0.000561423 0 0 0 -6.5982e-06 -5.43111e-06 -8.58007e-06 4.24798e-05 -9.86948e-06 4.77417e-05 -0.00418368 0.0125888 -0.000692838 0.000500364 621.528 0.00418867 -0.00418869 4 
2478 1 1 -0.0086764 -0.00107169 0.000448871 0 0 0 -9.98943e-06 -8.06763e-06 -1.23287e-05 6.09516e-05 -2.34945e-05 6.03492e-05 0.0117428 -0.0101955 -0.00139051 0.000500655 660.376 0.00418867 -0.0041887 6 
2421 1 1 -0.0078396 -0.000534043 0.00046177 0 0 0 -1.74491e-05 -1.31615e-05 -5.30246e-06 0.000107053 8.83238e-07 4.40878e-05 0.0187964 -0.0318276 0.00136906 0.000500837 684.585 0.00418867 -0.00418877 4 
2518 1 1 -0.00676106 -0.000874811 0.000505172 0 0 0 -1.03463e-05 -3.66991e-05 6.69512e-06 0.000174819 8.59032e-05 0.000104139 -0.0520012 -0.142283 -0.0549724 0.000501319 748.84 0.00418867 -0.00418878 3 
143 1 1 -0.00544032 -0.000907089 0.000480598 0 0 0 1.69896e-05 -3.0367e-05 2.08652e-05 8.06602e-05 7.66706e-05 8.92175e-05 0.0529054 0.00861894 0.0639376 0.00050156 781.007 0.00418867 -0.00418874 4 
74 1 1 -0.00449621 -0.000645684 0.000470955 0 0 0 2.14812e-05 -9.5887e-06 3.10487e-05 5.815e-05 0.000105945 5.04476e-05 0.0241499 0.0278702 -0.031569 0.00050172 802.312 0.00418867 -0.00418875 5 
115 1 1 -0.00223587 -0.00123686 0.000705318 0 0 0 9.49835e-05 0.000101725 2.12496e-05 2.60852e-05 0.000107633 0.000116278 0.0774422 0.0477082 -0.0286931 0.000502062 847.906 0.00418867 -0.00418877 5 
197 1 1 -0.001322 -0.000894834 0.000833697 0 0 0 0.000130241 8.81853e-05 1.69863e-05 2.95842e-05 -2.67103e-05 8.67592e-05 0.00652702 0.0174345 -0.053937 0.000502115 854.977 0.00418867 -0.00418892 5 
5605 1 1 -4.81783e-05 -0.000914958 0.000490345 0 0 0 5.11597e-05 6.71343e-05 -2.40422e-05 5.08716e-05 -0.000140967 6.35784e-05 -0.0968257 0.022507 0.0750005 0.000502152 859.882 0.00418867 -0.00418927 4 
2321 1 1 -0.00952903 0.000441136 0.000479301 0 0 0 -8.22232e-07 -6.11658e-06 -6.55784e-06 3.35438e-05 -1.33536e-05 2.61559e-05 0.00917953 0.00991834 -0.0164 0.000500366 621.816 0.00418867 -0.00418868 3 
754 1 1 -0.00869973 -8.42912e-05 0.000525629 0 0 0 -7.65455e-06 -1.11418e-05 -1.63799e-05 8.49635e-05 -1.69667e-05 9.49258e-05 -0.00719745 0.00423688 -0.0122753 0.00050062 655.604 0.00418867 -0.00418872 6 
1880 1 1 -0.0078306 0.000455297 0.00046226 0 0 0 -6.12374e-07 -1.48853e-05 -2.26642e-06 9.07489e-05 1.92066e-05 6.00079e-05 0.0166624 -0.00770108 -0.0528682 0.000500916 695.146 0.00418867 -0.00418892 6 
783 1 1 -0.0069114 0.000110272 0.000474722 0 0 0 -4.80048e-06 -3.90058e-05 5.77289e-06 0.000109519 7.80856e-05 5.3961e-05 0.0719308 -0.034408 0.0113867 0.000501191 731.774 0.00418867 -0.00418887 4 
233 1 1 -0.00606335 -0.000230916 0.000797809 0 0 0 4.26853e-06 -5.48136e-05 2.80811e-05 0.000143043 0.000150204 0.000144757 -0.0233774 -0.000589357 -0.00910821 0.000501444 765.489 0.00418867 -0.00418885 6 
129 1 1 -0.00512628 6.41856e-05 0.000761832 0 0 0 1.9181e-05 -2.93369e-05 4.0819e-05 0.000112068 0.000159354 0.000155037 -0.00740889 -0.021493 0.0530701 0.000501654 793.588 0.00418867 -0.00418884 7 
2061 1 1 -0.00420951 0.000288917 0.00047792 0 0 0 2.69571e-05 6.79993e-06 3.27538e-05 9.72457e-05 3.77169e-05 3.40965e-05 -0.0229581 0.0265113 0.0303491 0.000501797 812.598 0.00418867 -0.0041888 5 
1496 1 1 -0.00280932 -0.00048128 0.000473388 0 0 0 4.81917e-05 7.08649e-05 4.63181e-05 9.09758e-06 0.000161782 1.59403e-05 -0.103734 0.0962361 0.10282 0.000502009 840.894 0.00418867 -0.00418877 4 
2327 1 1 -0.00238513 0.000427934 0.000466912 0 0 0 4.42976e-05 4.58458e-05 2.73765e-05 0.000113562 5.68932e-05 -8.20609e-06 -0.0680823 0.0697283 -0.128912 0.000502036 844.436 0.00418867 -0.00418884 6 
109 1 1 -0.00152143 -3.06977e-05 0.000443292 0 0 0 6.23397e-05 5.32328e-05 4.80783e-06 0.000137267 -5.30041e-05 2.30364e-05 -0.116529 0.114655 0.168406 0.00050211 854.397 0.00418867 -0.00418895 5 
1095 1 1 -0.00054598 -7.75543e-05 0.000649517 0 0 0 7.49022e-05 9.80467e-05 -1.53357e-05 0.000184566 -0.000254891 0.000107814 0.126928 -0.0312137 -0.117645 0.000502144 858.837 0.00418867 -0.00418921 5 
2262 1 1 -0.00867735 0.000901503 0.000484154 0 0 0 -3.87968e-06 -7.78095e-06 -6.0133e-06 6.49084e-05 -1.62699e-05 4.00065e-05 0.0153552 -0.00810057 0.0280885 0.000500658 660.678 0.00418867 -0.00418865 5 
1456 1 1 -0.00754878 0.00140005 0.000480664 0 0 0 -5.84258e-06 -1.07663e-05 -8.57746e-07 0.000188976 -1.46812e-05 7.81775e-05 0.00797931 -0.0104455 0.0873264 0.000500974 702.922 0.00418867 -0.00418966 4 
2309 1 1 -0.00605677 0.00107645 0.000958645 0 0 0 -1.21437e-05 -3.2792e-05 2.85552e-05 0.000167694 0.000113477 0.000146888 0.052429 -0.0404352 0.0346393 0.000501487 771.282 0.00418867 -0.00418947 5 
386 1 1 -0.00519061 0.00101367 0.000490409 0 0 0 -1.07733e-06 -1.80669e-05 2.80663e-05 0.000104491 0.000103863 0.000128262 0.0142374 0.00937559 -0.0195785 0.000501675 796.306 0.00418867 -0.00418901 5 
2516 1 1 -0.00423263 0.00128027 0.000496421 0 0 0 1.43513e-06 -1.08108e-05 1.78064e-05 9.40963e-05 6.20268e-05 4.99275e-05 0.0096457 0.0141071 0.0218155 0.000501792 811.982 0.00418867 -0.00418887 5 
2382 1 1 -0.00332565 0.000741631 0.000497254 0 0 0 2.27087e-05 5.33223e-05 3.00512e-05 9.92324e-05 4.48557e-06 9.84859e-06 -0.0940933 0.00219173 0.0808676 0.000501928 830.079 0.00418867 -0.00418879 4 
2566 1 1 -0.00242696 0.00141421 0.000472753 0 0 0 5.78704e-05 4.26347e-05 1.83753e-06 4.15258e-05 -8.41074e-05 4.79174e-05 -0.0551677 0.120536 0.125147 0.000502021 842.503 0.00418867 -0.00418881 3 
178 1 1 -0.0015021 0.000963414 0.000517953 0 0 0 -0.00131616 -5.78837e-05 0.0011328 -0.000246819 -0.000231549 -0.000405934 1.38909 -53.9475 -1.43854 0.00050216 861.018 0.00418867 -0.00418885 2 
2022 1 1 -0.000228341 0.000845092 0.000466109 0 0 0 7.61625e-05 4.12941e-05 2.06636e-05 1.20814e-05 -0.00019239 8.35727e-05 -0.0717147 0.092724 -0.00294068 0.00050215 859.71 0.00418867 -0.00418944 4 
628 1 1 -0.00911755 0.00174436 0.000447082 0 0 0 -1.35305e-05 -1.27849e-05 -3.58784e-06 8.18527e-05 -4.1875e-05 4.72296e-05 0.0231224 -0.0294346 -0.013242 0.000500563 648.106 0.00418867 -0.00418821 4 
786 1 1 -0.00831093 0.00179734 0.000959534 0 0 0 -6.63443e-06 -4.81644e-05 -6.93897e-07 0.000217746 -5.96213e-05 0.0001212 0.00754306 0.0308937 -0.0390447 0.000500788 678.063 0.00418867 -0.0041879 6 
1700 1 1 -0.00758223 0.00247177 0.00050231 0 0 0 0.000529122 0.00174903 0.000386358 7.07028e-06 2.06508e-06 3.23221e-05 8.22293 -7.03198 6.37037 0.000502314 881.592 0.00418867 -0.00416387 2 
449 1 1 -0.00657592 0.00171072 0.000459896 0 0 0 -9.42362e-06 -1.11774e-05 2.08403e-05 0.000141 1.34657e-05 0.000118125 0.015036 -0.0263548 -0.00795578 0.000501411 761.148 0.00418867 -0.0041904 3 
986 1 1 -0.00584928 0.00235347 0.00047493 0 0 0 1.34382e-06 -1.73076e-05 2.9579e-05 0.000111111 -2.3191e-05 3.81951e-05 0.0262203 0.0122619 -0.0167856 0.000501534 777.592 0.00418867 -0.00418944 5 
1906 1 1 -0.00494463 0.0019717 0.000497846 0 0 0 1.46398e-06 -1.71207e-05 2.02425e-05 7.70733e-05 4.70173e-05 1.6785e-05 -0.00627151 0.00870219 0.00512216 0.000501726 803.128 0.00418867 -0.00418901 4 
1002 1 1 -0.00407094 0.00241656 0.00047438 0 0 0 9.52926e-06 -3.32701e-06 1.69987e-05 7.93098e-05 4.49189e-05 2.02164e-05 0.00115898 0.00265319 0.0189336 0.000501869 822.253 0.00418867 -0.00418882 5 
2667 1 1 -0.0033552 0.00173681 0.000477854 0 0 0 5.74877e-06 -3.91826e-06 1.98166e-05 6.08264e-05 4.32086e-05 1.8305e-05 0.0183208 -0.0113412 -0.01276 0.000501926 829.809 0.00418867 -0.0041888 6 
513 1 1 -0.00157161 0.00195783 0.000493803 0 0 0 4.88795e-05 -3.81649e-05 1.68962e-05 -0.000105791 -0.000287838 -0.000137216 0.0968481 0.0687656 -0.0642765 0.000502148 859.42 0.00418867 -0.00418886 3 
654 1 1 -0.000726905 0.00160717 0.00089377 0 0 0 5.86065e-05 -8.47298e-05 -6.9908e-05 -0.000284818 -0.000801076 -0.000222538 -0.443709 0.345477 -0.0928919 0.000502149 859.549 0.00418867 -0.00418905 4 
1500 1 1 -0.00022352 0.0023507 0.000483328 0 0 0 -1.51157e-05 -0.000171287 -5.76301e-05 -0.000226968 -0.000623153 -1.72242e-05 0.390562 -0.123758 -0.0121797 0.00050216 860.94 0.00418867 -0.0041892 3 
1161 1 1 -0.00914948 0.00339009 0.000468277 0 0 0 -1.60456e-05 1.0315e-05 -1.02747e-05 3.32129e-05 1.94993e-05 5.86081e-05 -0.0115577 -0.0193367 0.00083936 0.000500508 640.77 0.00418867 -0.00418698 6 
1350 1 1 -0.00952698 0.00255172 0.000778982 0 0 0 -1.92521e-05 -4.64217e-06 -1.60328e-06 1.85076e-05 -2.57334e-05 9.06231e-05 -0.0113099 -0.0023407 0.00204636 0.000500394 625.539 0.00418867 -0.00418751 4 
2530 1 1 -0.00857779 0.00258908 0.000469161 0 0 0 -7.19413e-07 -1.84466e-05 1.05934e-06 8.72867e-05 -6.48435e-05 6.17652e-05 0.0152046 -0.0100933 -0.00764103 0.000500685 664.373 0.00418867 -0.00418219 6 
2563 1 1 -0.00813528 0.00346347 0.000483505 0 0 0 -2.15163e-06 2.25287e-05 -4.75202e-06 0.000123767 3.75412e-05 9.60891e-05 -0.031812 -0.00639205 0.032068 0.000500867 688.597 0.00418867 -0.004187 4 
384 1 1 -0.00716743 0.00342599 0.000465549 0 0 0 4.06247e-06 -1.00379e-05 6.6278e-06 0.000166293 -1.56798e-05 7.47119e-05 0.0109048 -0.00963133 -0.0784002 0.000501177 729.881 0.00418867 -0.00418853 3 
990 1 1 -0.00667134 0.00270016 0.00088565 0 0 0 -4.46951e-06 -2.74566e-05 3.09095e-05 0.000204399 -3.83236e-05 0.000145764 -0.029673 -0.0143279 0.0377544 0.000501352 753.212 0.00418867 -0.00418973 6 
1282 1 1 -0.00602641 0.00332357 0.000488224 0 0 0 -5.33403e-06 -4.86844e-06 2.08578e-05 0.000124409 -4.68178e-05 0.00011034 -0.00934554 -0.010624 0.0181527 0.000501524 776.161 0.00418867 -0.0041891 6 
2218 1 1 -0.0050651 0.0030799 0.000487423 0 0 0 3.41631e-07 6.99752e-06 2.55163e-05 0.000102855 -3.18759e-05 2.06518e-05 -0.00710995 -0.00654203 0.00295097 0.000501696 799.149 0.00418867 -0.00418888 4 
1533 1 1 -0.00412367 0.00340055 0.000475563 0 0 0 1.95189e-05 -7.6539e-06 1.54792e-05 5.01515e-05 2.18357e-05 -2.28476e-06 0.0106642 0.0347083 -0.0432973 0.000501831 817.075 0.00418867 -0.00418877 5 
2203 1 1 -0.00312584 0.00270664 0.00049059 0 0 0 3.77656e-05 -1.59891e-05 2.16872e-05 6.43245e-05 -2.5383e-05 4.20564e-07 0.0151063 0.0352493 -0.0720254 0.000501978 836.774 0.00418867 -0.00418876 4 
426 1 1 -0.00215492 0.00289002 0.000465531 0 0 0 4.76573e-05 -1.85544e-05 9.00092e-06 8.81406e-05 -0.00010257 -9.92682e-06 0.0390945 0.071902 0.0883279 0.000502061 847.858 0.00418867 -0.00418874 4 
1165 1 1 -0.000956542 0.00279194 0.000947874 0 0 0 7.83425e-05 -0.000128966 -2.91694e-06 2.99177e-05 -0.000389616 -2.02852e-05 -0.0838566 0.140478 -0.212912 0.000502139 858.17 0.00418867 -0.00418895 6 
1397 1 1 -0.00952361 0.00429316 0.000488088 0 0 0 -1.33988e-05 1.17727e-05 -1.08061e-05 2.60689e-05 3.07153e-05 2.65676e-05 -0.0075023 0.00683643 0.0143211 0.000500397 625.893 0.00418867 -0.00418812 3 
358 1 1 -0.0086856 0.00408836 0.000968844 0 0 0 -2.6289e-05 1.92675e-05 -1.16802e-05 8.49536e-05 5.52761e-05 0.000108633 0.00320346 -0.0222364 -0.00071899 0.000500648 659.334 0.00418867 -0.00418793 7 
1403 1 1 -0.00630852 0.00426101 0.00053273 0 0 0 -8.93985e-06 7.85965e-06 1.5282e-05 0.000139063 -4.0679e-05 0.000142877 -0.00563386 -0.000447507 0.00247433 0.000501431 763.758 0.00418867 -0.00418881 5 
263 1 1 -0.00535451 0.00405201 0.000468351 0 0 0 -1.76839e-06 3.1441e-06 2.62059e-05 9.88997e-05 -1.68705e-05 4.85185e-05 -0.0114967 -0.0263068 -0.0209721 0.000501587 784.583 0.00418867 -0.00418882 5 
136 1 1 -0.00442546 0.00433616 0.000460822 0 0 0 2.8677e-05 2.38422e-06 2.94325e-05 6.25406e-05 -2.74616e-05 -7.73275e-08 -0.000953242 0.0506485 0.011969 0.000501778 810.082 0.00418867 -0.00418871 4 
963 1 1 -0.00322746 0.00387342 0.000465651 0 0 0 4.15545e-05 -8.97374e-06 1.81615e-05 9.11406e-05 -7.19311e-05 -2.83535e-05 0.0274213 0.0710282 -0.0562644 0.000501996 839.125 0.00418867 -0.00418864 4 
632 1 1 -0.00233455 0.00431025 0.000497818 0 0 0 3.03224e-05 -1.15984e-05 1.33745e-05 5.37441e-05 -8.64435e-05 -9.62188e-06 0.0140834 0.00104144 0.115566 0.000502055 847.016 0.00418867 -0.00418863 4 
1018 1 1 -0.00156728 0.0036866 0.000448288 0 0 0 4.4522e-05 -1.87422e-05 8.9528e-06 8.38677e-05 -0.000110026 1.7222e-06 0.0209347 0.0653816 -0.113852 0.0005021 853.055 0.00418867 -0.00418868 5 
885 1 1 -0.000578616 0.00354521 0.0004666 0 0 0 5.66691e-05 -7.87261e-05 -1.26391e-05 -2.06164e-06 -0.000201273 -1.91418e-05 0.143533 0.0570781 0.101005 0.000502153 860.131 0.00418867 -0.00418884 6 
1421 1 1 -0.00089803 0.00448285 0.000462856 0 0 0 4.88506e-05 -4.43412e-05 3.09728e-05 3.38904e-05 -0.000143709 1.06315e-05 0.0271446 0.0696392 -0.0944604 0.000502148 859.38 0.00418867 -0.00418857 6 
758 1 1 -0.00800463 0.00459413 0.000460455 0 0 0 -1.59295e-05 4.73997e-06 -4.5787e-06 8.47785e-05 1.95167e-05 8.88169e-05 -0.0133486 -0.0266188 -0.0244296 0.000500901 693.111 0.00418867 -0.00418849 5 
508 1 1 -0.0088587 0.0049851 0.000667302 0 0 0 -1.69481e-05 1.75357e-05 -1.45691e-05 6.21498e-05 4.02168e-05 6.06893e-05 0.00801905 0.00237121 -0.00491389 0.000500619 655.497 0.00418867 -0.00418841 8 
2412 1 1 -0.00706729 0.00486398 0.000483637 0 0 0 -1.58692e-05 2.70802e-06 5.74153e-06 0.000119882 2.51496e-06 7.02454e-05 -0.00357522 -0.0150092 0.0179158 0.000501183 730.757 0.00418867 -0.00418867 4 
2679 1 1 -0.0034753 0.00482845 0.000497664 0 0 0 2.67051e-05 1.87728e-05 3.06512e-05 6.30712e-05 -5.71693e-05 -1.6392e-05 -0.0393838 0.035304 0.0588997 0.00050196 834.322 0.00418867 -0.00418862 4 
2253 1 1 -0.00258552 0.00526307 0.00048658 0 0 0 3.3319e-05 -1.01436e-05 3.23781e-05 5.56041e-05 -2.10191e-05 -7.91917e-06 0.0354964 0.00751528 -0.120682 0.000502039 844.86 0.00418867 -0.00418905 6 
1233 1 1 -0.00160629 0.0051691 0.00050059 0 0 0 4.66232e-05 -3.72723e-05 4.77365e-05 8.01694e-05 -6.59571e-05 -4.74054e-05 0.0268171 0.00139159 0.0746223 0.000502123 856.018 0.00418867 -0.00418837 4 
2032 1 1 -0.000632801 0.00543883 0.000485362 0 0 0 5.90604e-05 -2.93992e-05 1.81319e-05 4.50718e-05 -5.73642e-06 -6.29567e-05 0.0263648 0.0899817 0.0705431 0.000502159 860.925 0.00418867 -0.00418823 5 
76 1 1 -0.00953972 0.00563391 0.000464075 0 0 0 -8.34821e-06 7.78124e-06 -9.91345e-06 1.87757e-05 8.64626e-06 1.97421e-05 -0.0153484 0.0074269 0.0122757 0.000500406 627.182 0.00418867 -0.00418858 4 
1503 1 1 -0.00860382 0.0059075 0.000470877 0 0 0 -1.75299e-05 1.29975e-05 -1.54759e-05 6.40586e-05 1.5035e-05 4.21466e-05 -0.0252745 -0.0229841 0.00759173 0.00050073 670.358 0.00418867 -0.00418857 5 
868 1 1 -0.00766606 0.00563172 0.000479296 0 0 0 -1.98616e-05 6.27148e-06 -1.92195e-06 9.93263e-05 2.01591e-05 5.6391e-05 0.00408916 -0.0198944 -0.0160501 0.000501011 707.859 0.00418867 -0.00418862 5 
1136 1 1 -0.00595153 0.0060453 0.000471094 0 0 0 -6.38074e-06 4.7815e-06 4.80211e-06 0.000182034 -2.02983e-05 7.37028e-05 -0.0100992 -0.0185698 0.00601971 0.000501566 781.812 0.00418867 -0.00418866 3 
222 1 1 -0.00418088 0.00552026 0.000483826 0 0 0 1.02186e-05 3.91664e-06 3.35136e-05 0.000132522 -3.53678e-06 6.15428e-05 -0.0134095 0.027112 -0.00445309 0.000501855 820.342 0.00418867 -0.004189 5 
1117 1 1 -0.00497907 0.00608812 0.000680957 0 0 0 -4.65288e-07 1.17794e-05 3.01315e-05 0.000232473 -2.39288e-05 9.44535e-05 -0.0086215 -0.0252348 0.00149421 0.000501735 804.3 0.00418867 -0.00418888 4 
57 1 1 -0.00325169 0.00598931 0.000489584 0 0 0 4.19749e-05 6.60476e-06 3.28485e-05 9.2127e-05 0.000169238 7.42413e-05 -0.0341676 0.0504212 0.0632183 0.000501974 836.182 0.00418867 -0.00419013 4 
1367 1 1 -0.00135009 0.00612729 0.000479229 0 0 0 4.4512e-05 -2.6535e-05 4.8831e-05 8.90611e-05 -7.90331e-05 -5.61836e-05 0.0300017 0.0636715 -0.0591849 0.000502132 857.241 0.00418867 -0.00418827 4 
1303 1 1 -0.0095088 0.00733367 0.000497375 0 0 0 -1.15798e-05 6.28828e-06 -5.42187e-06 5.64277e-06 -1.80817e-05 -9.76082e-06 -0.000166746 0.00137164 0.00366654 0.000500341 618.53 0.00418867 -0.00418865 2 
606 1 1 -0.00870531 0.00683119 0.000779069 0 0 0 -3.05721e-05 1.43515e-05 -2.42506e-05 3.13811e-05 -5.77581e-06 2.50289e-05 0.0167223 0.0037416 0.000790462 0.000500711 667.853 0.00418867 -0.00418863 7 
682 1 1 -0.00780559 0.00660516 0.000472659 0 0 0 -2.76807e-05 1.47092e-05 -9.01239e-06 7.42192e-05 3.3864e-05 3.46135e-05 -0.0279372 -0.0499527 0.0169721 0.000500942 698.665 0.00418867 -0.00418864 4 
1384 1 1 -0.00652821 0.00707476 0.00049105 0 0 0 0.00494576 4.56319e-05 -5.40788e-06 0.000199451 -1.44101e-05 5.16014e-05 -0.0873483 9.93271 274.62 0.000501433 764.044 0.00418867 -0.00418887 1 
634 1 1 -0.00550609 0.00723484 0.000484238 0 0 0 -1.04066e-05 7.96823e-06 -2.52567e-06 0.00016763 0.000143196 8.73494e-05 -0.0193414 -0.0156355 -0.0691258 0.000501578 783.373 0.00418867 -0.00419051 2 
1791 1 1 -0.00409583 0.00650644 0.00048279 0 0 0 1.64543e-05 3.26277e-06 2.96563e-05 0.000148263 0.000112965 0.000200988 -0.00207611 0.00614353 -0.0152939 0.000501857 820.564 0.00418867 -0.00419057 6 
220 1 1 -0.00321586 0.00697279 0.000481092 0 0 0 2.21773e-05 1.23748e-05 4.37732e-05 0.000244456 -0.000282805 -0.000573169 0.0350863 0.0530734 -0.0121829 0.000501953 833.349 0.00418867 -0.0041791 6 
2336 1 1 -0.00213546 0.00679963 0.000505971 0 0 0 -0.00888671 0.000269216 -7.16655e-05 4.22216e-06 -1.93759e-05 1.55362e-05 0.105551 13.4327 12.3043 0.000504733 1204 0.00418867 -0.00415527 1 
926 1 1 -0.000540122 0.00666424 0.000471581 0 0 0 6.05554e-05 -3.83183e-05 2.98288e-05 1.10889e-05 3.32172e-05 -6.85974e-05 0.0748066 0.0966513 0.0207918 0.000502159 860.888 0.00418867 -0.00418755 4 
1666 1 1 -0.00951398 -0.00700678 0.00138776 0 0 0 -1.97171e-05 9.09876e-06 -1.69834e-05 1.54173e-05 -9.66502e-06 2.32781e-05 0.00573261 0.00334037 -0.00528622 0.000500382 623.924 0.00418867 -0.00418866 4 