ITEM: TIMESTEP
53000000
ITEM: NUMBER OF ATOMS
15430
ITEM: BOX BOUNDS mm pp mm
-0.0125 0.0125
-0.0075 0.0075
0 0.015
ITEM: ATOMS id type type x y z ix iy iz vx vy vz fx fy fz omegax omegay omegaz radius f_Temp[0] f_heatSource[0] 
1566 1 1 -0.0119879 -0.00714381 0.000499997 0 0 0 -1.06588e-07 7.02823e-07 -1.42336e-07 2.9871e-09 -3.97678e-09 5.31189e-09 -0.000719258 0.000344224 -0.00201404 0.0005 573 0 
12873 2 2 -0.0124 -0.00697009 9.99967e-05 0 0 0 -2.81313e-08 4.86316e-07 -9.7536e-08 2.3107e-11 3.51353e-11 1.09728e-11 -0.00466457 0.000573236 0.00478624 0.0001 573 0 
12830 2 2 -0.0124 -0.00731742 9.99838e-05 0 0 0 -1.36365e-07 4.92776e-07 8.06556e-08 1.68416e-11 3.30038e-11 -3.40676e-12 -0.00481926 -0.00162341 0.00515722 0.0001 573 0 
12755 2 2 -0.0121754 -0.00669703 0.0001 0 0 0 -0.000695527 9.48304e-06 2.64761e-13 4.83428e-20 -1.42406e-22 0 -0.0948304 -6.95527 -11.0721 0.0001 573 0 
12844 2 2 -0.0123801 -0.00676999 0.0001 0 0 0 0.00032325 1.57128e-06 -1.78852e-13 2.417e-20 1.37102e-22 0 -0.0157128 3.2325 -3518.21 0.0001 573 0 
12833 2 2 -0.0119441 -0.0066591 0.0001 0 0 0 0.000519491 -0.0015342 -1.32961e-13 -3.45879e-20 7.30915e-20 0 15.342 5.19491 -230.858 0.0001 573 0 
10862 2 2 -0.0114213 -0.00717089 0.0001 0 1 0 0.000921518 0.00185959 -2.55336e-13 6.59072e-20 1.99051e-19 0 -18.5959 9.21518 1154.4 0.0001 573 0 
12814 2 2 -0.011076 -0.0068013 0.0001 0 0 0 -5.10719e-05 0.000208475 -1.17664e-13 -6.22041e-21 2.19033e-20 0 -2.08475 -0.510719 -685.258 0.0001 573 0 
1274 1 1 -0.0105987 -0.00690017 0.00045064 0 0 0 -4.56478e-07 8.93233e-07 5.13296e-08 2.88399e-09 -4.53499e-09 2.49707e-09 -0.00103382 -0.00083817 -0.00134493 0.0005 573 0 
9698 2 2 -0.0113214 -0.00690567 0.0001 0 1 0 -0.00110187 0.00044759 -3.62415e-13 1.00477e-19 4.01036e-20 0 -4.4759 -11.0187 131.329 0.0001 573 0 
12871 2 2 -0.011078 -0.00656645 0.0001 0 0 0 -0.00104336 -0.000406279 -2.01797e-13 3.66173e-20 4.98093e-20 0 4.06279 -10.4336 144.721 0.0001 573 0 
9628 2 2 -0.00994484 -0.00672771 0.0001 0 1 0 0.000746147 -0.000838827 2.95354e-13 5.02423e-20 9.05315e-20 0 8.38827 7.46147 -50.4217 0.0001 573 0 
1422 1 1 -0.00942823 -0.00691489 0.000460569 0 0 0 -6.56425e-07 1.00592e-06 3.56064e-08 2.22258e-09 -3.26055e-09 4.19351e-09 -0.000744777 -0.00153948 -0.00296205 0.0005 573 0 
12861 2 2 -0.0100192 -0.0065301 0.0001 0 0 0 0.00151847 -0.000243189 5.47755e-13 1.00478e-19 2.48813e-20 0 2.43189 15.1847 228.245 0.0001 573 0 
12867 2 2 -0.0102228 -0.00652528 0.0001 0 0 0 0.00138902 -0.00084202 4.7127e-13 6.17433e-20 -2.25198e-20 0 8.4202 13.8902 403.673 0.0001 573 0 
12817 2 2 -0.00868714 -0.00665119 0.0001 0 0 0 0.000405192 0.00220353 -3.31821e-13 -4.62704e-20 8.81807e-20 0 -22.0353 4.05192 -3994.04 0.0001 573 0 
9657 2 2 -0.00904395 -0.00749197 0.0001 0 1 0 -0.000303497 0.000664734 -5.53627e-13 -2.12052e-20 -4.92881e-20 0 -6.64734 -3.03497 4294.51 0.0001 573 0 
7061 2 2 -0.00802343 -0.00720348 0.0001 0 1 0 -0.000959972 0.00489873 2.0009e-14 7.43576e-20 -2.15859e-19 0 -48.9873 -9.59972 100.841 0.0001 573 0 
1497 1 1 -0.00719737 -0.00694374 0.000471639 0 0 0 -3.24467e-07 2.42411e-06 2.0986e-07 -8.25455e-09 -6.7274e-09 8.85996e-09 -0.0042703 -0.000684791 0.0039931 0.0005 573 0 
597 1 1 -0.00578001 -0.00671337 0.00083792 0 0 0 -1.00024e-06 5.83536e-06 1.99911e-07 -3.1149e-08 4.73349e-09 -3.94681e-09 0.00174053 0.00401896 0.00208781 0.0005 573 0 
12262 2 2 -0.00571551 -0.00742912 0.0001 0 1 0 -0.00081777 -0.00145672 6.58999e-14 9.95278e-20 1.00481e-19 0 14.5672 -8.1777 33.7812 0.0001 573 0 
14148 2 2 -0.00511375 -0.00657035 0.0001 0 1 0 0.00388674 0.00445823 2.26518e-13 -1.78742e-19 -3.94297e-19 0 -44.5823 38.8675 -119.346 0.0001 573 0 
598 1 1 -0.00505741 -0.00723228 0.000463305 0 0 0 -1.12648e-06 5.33886e-06 -4.18514e-07 -3.85583e-08 -3.07181e-09 -8.36587e-09 -0.00967624 -0.000869203 4.81823e-05 0.0005 573 0 
12845 2 2 -0.003609 -0.0070826 0.0001 0 0 0 -1.62547e-05 -0.000307555 -2.47688e-13 -1.54025e-21 -2.46444e-20 0 3.07555 -0.162547 -641.73 0.0001 573 0 
638 1 1 -0.00369794 -0.00669028 0.00056025 0 0 0 -1.64489e-07 7.11482e-06 -5.25636e-07 -1.10699e-08 1.50851e-08 -1.27169e-08 -0.0069115 0.00358665 0.00248648 0.0005 573 0 
12210 2 2 -0.00346595 -0.00738385 0.0001 0 1 0 0.000964089 0.000918181 -6.14815e-13 -9.14003e-20 9.14314e-20 0 -9.18181 9.64089 -211.32 0.0001 573 0 
9541 2 2 -0.00396396 -0.00713029 0.0001 0 1 0 -9.00756e-05 0.00197786 3.10651e-13 2.38932e-21 -8.45439e-20 0 -19.7786 -0.900756 352.766 0.0001 573 0 
12198 2 2 -0.00342211 -0.00718017 0.0001 0 1 0 0.000111293 -0.000246621 -1.48258e-13 9.8846e-21 6.30544e-21 0 2.46621 1.11293 -697.766 0.0001 573 0 
12200 2 2 -0.00381015 -0.00726395 0.0001 0 1 0 -0.000401661 0.00143724 -3.08876e-13 1.31904e-20 2.93355e-20 0 -14.3724 -4.01661 193.725 0.0001 573 0 
12207 2 2 -0.00317616 -0.00723228 0.0001 0 1 0 -0.00143501 0.00100697 -1.78852e-13 5.60535e-20 9.85828e-20 0 -10.0697 -14.3502 194.847 0.0001 573 0 
1033 1 1 -0.00274388 -0.00694398 0.000470496 0 0 0 7.3332e-07 8.20408e-06 -2.96378e-07 -5.18832e-09 1.26377e-08 -1.26789e-08 -0.00848514 -0.00124703 0.00690808 0.0005 573 0 
12221 2 2 -0.00235195 -0.00663889 0.0001 0 1 0 -0.000706038 0.00203351 -3.3947e-13 -8.23846e-21 1.93346e-19 0 -20.3351 -7.06038 125.767 0.0001 573 0 
12129 2 2 -0.00297262 -0.00737591 0.0001 0 1 0 -0.000893906 0.000614548 3.79488e-13 -9.85685e-20 4.9284e-20 0 -6.14548 -8.93906 -34.6715 0.0001 573 0 
12148 2 2 -0.00244526 -0.0073108 0.0001 0 1 0 0.000388747 0.000274597 -4.389e-13 -1.9149e-20 -2.00549e-20 0 -2.74597 3.88747 -146.282 0.0001 573 0 
11531 2 2 -0.00223436 -0.00697463 0.0001 0 1 0 0.00104552 0.00194194 -1.94149e-13 -1.00481e-19 1.95831e-19 0 -19.4194 10.4552 -78.0531 0.0001 573 0 
12247 2 2 -0.00210697 -0.00665007 0.0001 0 1 0 -0.000104922 1.39612e-05 -3.31821e-13 1.01906e-20 -1.53971e-21 0 -0.139612 -1.04922 -19809 0.0001 573 0 
12194 2 2 -0.00225033 -0.00737086 0.0001 0 1 0 0.000742694 0.000927734 5.01864e-13 -5.02412e-20 9.95292e-20 0 -9.27735 7.42694 1185.89 0.0001 573 0 
13805 2 2 -0.00208444 -0.00749425 0.0001 0 1 0 -1.89469e-05 4.58041e-06 6.62482e-13 1.00318e-21 -8.60309e-23 0 -0.0458041 -0.189469 13.5967 0.0001 573 0 
12142 2 2 -0.00261252 -0.00744423 0.0001 0 1 0 -0.000370034 0.000884253 8.11969e-14 6.57677e-21 5.73593e-20 0 -8.84254 -3.70034 34.5764 0.0001 573 0 
565 1 1 -0.00178182 -0.00713142 0.000469885 0 0 0 4.24828e-07 1.3344e-05 2.56196e-07 -9.41853e-09 1.43055e-08 -7.39095e-09 -0.0119642 0.00490148 0.00135198 0.0005 573 0 
12216 2 2 -0.00107316 -0.00706823 0.0001 0 1 0 -0.000134493 0.000834716 3.94785e-13 -1.20845e-20 4.76251e-20 0 -8.34717 -1.34493 474.059 0.0001 573 0 
11127 2 2 -0.00124307 -0.00717406 0.0001 0 0 0 0.000356807 -3.29163e-05 -3.93009e-13 2.51203e-20 1.27932e-21 0 0.329163 3.56807 4.1895 0.0001 573 0 
12186 2 2 -0.00135674 -0.00733886 0.0001 0 1 0 0.000119434 0.000101405 6.47185e-13 7.94103e-21 4.07643e-21 0 -1.01405 1.19434 -46.6689 0.0001 573 0 
11240 2 2 -0.00135083 -0.00672614 0.0001 0 0 0 -0.00235393 -0.000578262 1.50033e-13 2.00956e-19 4.83369e-20 0 5.78262 -23.5393 207.974 0.0001 573 0 
12137 2 2 -0.000994682 -0.00737711 0.0001 0 1 0 0.000432613 -5.50614e-05 -2.8593e-13 4.93842e-20 -6.22105e-21 0 0.550614 4.32614 -63.4213 0.0001 573 0 
12151 2 2 -0.000799734 -0.00746279 0.0001 0 1 0 0.000398239 -0.000444426 -3.70064e-13 -3.14939e-22 -4.97678e-20 0 4.44426 3.9824 7294.7 0.0001 573 0 
560 1 1 -0.000614204 -0.00700387 0.00048119 0 0 0 1.33553e-06 1.25384e-05 -1.22615e-06 -9.1264e-09 1.24342e-08 -5.1415e-09 -0.00922333 -0.00183438 -0.000552327 0.0005 573 0 
11226 2 2 -0.000115123 -0.00714181 0.0001 0 0 0 0.000635373 -0.00330062 -1.48258e-13 4.8332e-20 -3.54223e-20 0 33.0062 6.35373 -773.427 0.0001 573 0 
11131 2 2 -6.30891e-05 -0.0073669 0.0001 0 0 0 -0.000416306 0.000999619 5.09512e-13 1.2098e-20 -9.67049e-20 0 -9.99619 -4.16306 1182.34 0.0001 573 0 
11135 2 2 -0.000250544 -0.00671477 0.0001 0 0 0 0.00175005 -0.00275141 6.58999e-14 -1.1651e-19 -1.91083e-19 0 27.5141 17.5005 -57.108 0.0001 573 0 
11247 2 2 -6.7657e-05 -0.00679621 0.0001 0 0 0 0.00212725 -0.00205169 -4.9244e-13 1.97173e-19 1.89959e-19 0 20.5169 21.2725 145.296 0.0001 573 0 
11197 2 2 -0.00038541 -0.00656688 0.0001 0 0 0 0.00592106 0.0013649 -6.41243e-14 -2.47017e-20 1.02124e-20 0 -13.649 59.2106 -7.07205 0.0001 573 0 
13608 2 2 -0.000156926 -0.0065337 0.0001 0 0 0 7.67333e-05 -0.000234294 1.42385e-13 6.27989e-21 -2.51204e-20 0 2.34294 0.767333 -3888.08 0.0001 573 0 
13501 2 2 -0.000757665 -0.0065177 0.0001 0 0 0 -0.0072929 0.00311513 -5.23033e-13 -5.42093e-19 -5.15908e-20 0 -31.1513 -72.929 132.819 0.0001 573 0 
12787 2 2 -0.011786 -0.00627179 0.0001 0 0 0 -0.00248499 0.00165317 2.26518e-13 -4.77188e-20 1.97157e-19 0 -16.5317 -24.8499 651.282 0.0001 573 0 
12823 2 2 -0.0117339 -0.00607743 0.0001 0 0 0 -0.00188368 0.00160337 6.24239e-13 1.72052e-19 -3.24263e-20 0 -16.0337 -18.8368 265.411 0.0001 573 0 
12847 2 2 -0.0120238 -0.00646789 0.0001 0 0 0 -0.000768232 -0.00170425 1.34736e-13 5.02399e-20 -1.99052e-19 0 17.0425 -7.68232 125.904 0.0001 573 0 
12875 2 2 -0.0115875 -0.00624271 0.0001 0 0 0 -0.00216048 0.000190454 -2.24743e-13 4.71846e-20 3.29474e-21 0 -1.90454 -21.6048 -1950.78 0.0001 573 0 
12827 2 2 -0.0111717 -0.00624766 0.0001 0 0 0 0.00198694 0.0029278 -4.08306e-13 -1.97164e-19 -1.9715e-19 0 -29.278 19.8694 -209.535 0.0001 573 0 
12816 2 2 -0.0109742 -0.00621537 0.0001 0 0 0 0.00254622 6.82343e-05 1.11791e-13 1.97153e-19 -6.0397e-21 0 -0.682343 25.4622 170.816 0.0001 573 0 
12846 2 2 -0.0107749 -0.00619847 0.0001 0 0 0 0.00258805 -0.000380099 -9.47183e-14 -1.97195e-19 2.51202e-20 0 3.80099 25.8805 224.097 0.0001 573 0 
12831 2 2 -0.0106547 -0.006365 0.0001 0 0 0 0.00149846 -0.00108735 3.71839e-13 -9.85734e-20 -9.84124e-21 0 10.8735 14.9846 24.8192 0.0001 573 0 
270 1 1 -0.0113463 -0.00581148 0.00049331 0 0 0 3.97921e-08 9.85796e-07 -8.71147e-08 -8.43317e-09 -1.46071e-08 -1.30843e-09 -0.00148187 0.000413937 -0.00171227 0.0005 573 0 
12811 2 2 -0.0106533 -0.00578744 0.0001 0 0 0 0.000323854 0.000251207 -3.16524e-13 -2.51196e-20 -1.99715e-21 0 -2.51207 3.23854 -5.24782 0.0001 573 0 
12762 2 2 -0.0106805 -0.00601929 0.0001 0 0 0 -0.000134592 0.00109153 2.0009e-14 1.01194e-20 -8.10324e-20 0 -10.9153 -1.34592 95.7006 0.0001 573 0 
12758 2 2 -0.0109394 -0.00601825 0.0001 0 0 0 -0.000293527 0.000687373 3.41245e-13 -1.09737e-21 -2.40514e-21 0 -6.87373 -2.93527 -38.6921 0.0001 573 0 
12865 2 2 -0.0105178 -0.00562324 0.0001 0 0 0 0.000292819 -0.000328706 -3.93009e-13 2.41684e-20 -2.41684e-20 0 3.28706 2.92819 6.50706 0.0001 573 0 
12821 2 2 -0.0108515 -0.00582219 0.0001 0 0 0 0.00035158 -0.000189728 -6.60706e-13 2.41722e-20 -1.25606e-20 0 1.89728 3.5158 16.7369 0.0001 573 0 
12766 2 2 -0.0109117 -0.00563142 0.0001 0 0 0 0.000350142 -0.000189283 5.47755e-13 1.33761e-20 1.20871e-20 0 1.89283 3.50142 -18.6006 0.0001 573 0 
12802 2 2 -0.0107023 -0.00554556 0.0001 0 0 0 9.40724e-05 -0.000718904 -3.35304e-14 -6.28027e-21 2.36893e-20 0 7.18905 0.940724 -2.9681 0.0001 573 0 
12757 2 2 -0.0104081 -0.00641576 0.0001 0 0 0 0.000760078 -0.000531413 -2.32391e-13 4.92949e-20 3.58895e-20 0 5.31413 7.60078 -206.632 0.0001 573 0 
9735 2 2 -0.00946495 -0.00581383 0.0001 0 1 0 0.00269035 -0.000719353 -5.15385e-13 -2.00958e-19 4.93031e-20 0 7.19354 26.9035 56.37 0.0001 573 0 
12805 2 2 -0.00981593 -0.00636192 0.0001 0 0 0 0.00160645 0.000434132 3.10651e-13 5.52316e-20 3.84412e-20 0 -4.34132 16.0645 4.19756 0.0001 573 0 
12770 2 2 -0.00948525 -0.00619806 0.0001 0 0 0 0.000288908 0.000902861 -2.70633e-13 9.64379e-21 7.22983e-20 0 -9.02861 2.88908 25.0741 0.0001 573 0 
947 1 1 -0.010218 -0.00599069 0.000481288 0 0 0 -5.86614e-07 1.21721e-06 -3.95135e-08 6.85375e-09 -5.29686e-09 3.20082e-09 -0.00141775 -0.000919436 0.00170366 0.0005 573 0 
12824 2 2 -0.00968184 -0.00578986 0.0001 0 0 0 0.00067315 -0.00127296 1.04142e-13 4.92917e-20 -9.85706e-20 0 12.7296 6.7315 -33.9948 0.0001 573 0 
12825 2 2 -0.00999856 -0.00557917 0.0001 0 0 0 0.000693364 -0.000577519 -4.31252e-13 -5.02386e-20 3.03866e-20 0 5.77519 6.93364 -17.269 0.0001 573 0 
12832 2 2 -0.0103061 -0.00553057 0.0001 0 0 0 0.000634151 9.8187e-05 4.40676e-13 -2.77039e-20 6.27981e-21 0 -0.98187 6.34151 -277.516 0.0001 573 0 
1637 1 1 -0.00886755 -0.00612201 0.000483814 0 0 0 -5.14797e-07 1.10045e-06 1.54562e-07 -2.19192e-10 -4.54435e-09 3.89117e-09 -0.00111661 -2.92274e-05 0.00317247 0.0005 573 0 
1203 1 1 -0.0078848 -0.00621938 0.000459388 0 0 0 -8.36357e-07 1.81074e-06 7.63084e-08 -1.70652e-09 7.79171e-09 5.419e-09 -0.00255357 -0.00106085 -0.00143975 0.0005 573 0 
14172 2 2 -0.00704623 -0.00642827 0.0001 0 1 0 0.00157139 -0.000975572 2.49464e-13 2.75457e-20 5.63895e-20 0 9.75572 15.714 -19.3836 0.0001 573 0 
13273 2 2 -0.00714605 -0.00603698 0.0001 0 1 0 0.000463797 -0.000345797 -6.41243e-14 3.65038e-20 2.51204e-20 0 3.45797 4.63797 -84.97 0.0001 573 0 
208 1 1 -0.00717752 -0.00555261 0.000546503 0 0 0 -1.99236e-06 2.44909e-06 -5.50454e-07 -1.99865e-10 8.76811e-09 3.79056e-09 0.000671105 0.00240073 0.00265667 0.0005 573 0 
440 1 1 -0.00645825 -0.00619214 0.000440071 0 0 0 -1.44653e-06 3.24279e-06 3.71407e-07 -1.96481e-08 -1.9202e-09 2.66255e-10 -0.00528914 -0.00271567 0.000316432 0.0005 573 0 
12299 2 2 -0.00645412 -0.00566372 0.0001 0 0 0 -0.000674595 0.000280603 3.64191e-13 -4.51948e-20 2.31341e-20 0 -2.80603 -6.74595 -15249.8 0.0001 573 0 
8001 2 2 -0.0054107 -0.00628658 0.0001 0 0 0 0.0062593 0.00367662 -3.16524e-13 4.01913e-19 3.33494e-19 0 -36.7662 62.593 76.6074 0.0001 573 0 
8012 2 2 -0.00595336 -0.006241 0.0001 0 0 0 0.00064686 0.00132355 -5.84221e-13 2.2579e-20 4.60665e-20 0 -13.2355 6.46861 28.4511 0.0001 573 0 
12345 2 2 -0.00596515 -0.00595515 0.0001 0 1 0 -5.06727e-05 0.00310477 -1.32961e-13 3.82583e-21 6.83483e-20 0 -31.0477 -0.506727 -347.787 0.0001 573 0 
13337 2 2 -0.00580809 -0.00572616 0.0001 0 1 0 0.000993667 -0.000251892 -7.94213e-14 -9.85708e-20 1.84264e-20 0 2.51892 9.93667 14.5352 0.0001 573 0 
1122 1 1 -0.00546074 -0.00581723 0.00100814 0 0 0 -1.60853e-06 5.81874e-06 4.92559e-07 -2.92836e-08 6.48008e-09 2.15972e-09 -0.00269938 2.71102e-05 0.00305485 0.0005 573 0 
8037 2 2 -0.00567306 -0.00553778 0.0001 0 0 0 1.9636e-05 -1.05034e-05 -1.48258e-13 1.57003e-21 7.70139e-22 0 0.105034 0.19636 0.687966 0.0001 573 0 
8118 2 2 -0.00542132 -0.00583614 0.0001 0 0 0 -0.00201597 0.00353898 -1.05849e-14 2.00964e-19 -2.06953e-19 0 -35.3898 -20.1597 276.791 0.0001 573 0 
13279 2 2 -0.00498086 -0.00602933 0.0001 0 1 0 0.000855775 -0.000806837 6.58999e-14 -7.3479e-20 4.94728e-20 0 8.06837 8.55775 -18.4193 0.0001 573 0 
8084 2 2 -0.00518971 -0.00568281 0.0001 0 0 0 -0.000206724 4.90986e-05 1.04142e-13 -2.48812e-20 3.08068e-21 0 -0.490986 -2.06724 -3.44826 0.0001 573 0 
14152 2 2 -0.00494867 -0.00583193 0.0001 0 1 0 0.000760601 -0.000790532 -1.63555e-13 -5.02409e-20 4.92889e-20 0 7.90532 7.60601 19.0954 0.0001 573 0 
13288 2 2 -0.00471484 -0.00589769 0.0001 0 1 0 0.00112388 0.000471727 3.79488e-13 1.00477e-19 -1.18517e-20 0 -4.71728 11.2388 -27.9204 0.0001 573 0 
687 1 1 -0.00462235 -0.00634404 0.00049684 0 0 0 -1.26729e-06 3.77135e-06 -7.74648e-07 -1.4247e-08 2.33396e-09 3.95445e-09 0.00217593 -0.00311371 0.00137534 0.0005 573 0 
1481 1 1 -0.00387952 -0.00565578 0.000461126 0 0 0 -9.06433e-07 5.29802e-06 1.27203e-07 -1.51965e-08 1.0059e-08 1.17666e-11 -0.00960952 0.00145613 0.00225117 0.0005 573 0 
1162 1 1 -0.00298125 -0.0060039 0.000473453 0 0 0 -1.12921e-06 6.21576e-06 -5.5539e-07 -1.28821e-08 1.49797e-08 -6.09535e-09 -0.0015769 0.00039569 0.000356183 0.0005 573 0 
12133 2 2 -0.00147443 -0.00619617 0.0001 0 1 0 -3.36181e-05 0.000394733 -2.58819e-14 -9.48318e-22 2.46481e-20 0 -3.94734 -0.336181 -765.042 0.0001 573 0 
12248 2 2 -0.00116343 -0.00647311 0.0001 0 1 0 0.00068283 -0.00161602 2.76575e-14 -4.83439e-20 -1.99055e-19 0 16.1602 6.8283 831.816 0.0001 573 0 
1698 1 1 -0.00199316 -0.0061738 0.000448391 0 0 0 -5.51292e-07 7.88487e-06 -1.24783e-06 -1.01889e-08 1.50327e-08 -1.06761e-08 -0.00834351 -0.00169132 0.00213925 0.0005 573 0 
492 1 1 -0.00108532 -0.00620535 0.000803695 0 0 0 1.22034e-07 1.32725e-05 -2.88546e-07 -1.54105e-08 2.12404e-08 -9.79165e-09 -0.000309478 -0.000897328 0.000541445 0.0005 573 0 
12775 2 2 -0.000584664 -0.00628309 0.0001 0 0 0 0.0136433 0.00123231 2.09849e-11 9.5107e-09 -1.85589e-08 -1.08775e-16 18663.8 18168.2 -38714.4 0.0001 573 0 
518 1 1 -0.000269281 -0.00581372 0.000464285 0 0 0 1.57198e-06 8.55294e-06 -1.66934e-07 -7.55782e-09 1.48984e-08 -2.13811e-09 -0.0114351 0.00320481 -0.00419232 0.0005 573 0 
11138 2 2 -0.000384686 -0.0062801 0.0001 0 0 0 0.0137352 -0.00489615 -2.03973e-11 6.54346e-09 -1.19318e-09 7.64864e-16 48.9615 137.352 220.148 0.0001 573 0 
12779 2 2 -0.011809 -0.00549889 0.0001 0 0 0 -0.00032781 0.000393132 -2.70633e-13 2.41662e-20 1.95528e-20 0 -3.93132 -3.2781 80.6985 0.0001 573 0 
10707 2 2 -0.0122626 -0.00545185 0.0001 0 0 0 3.90876e-06 -5.70185e-06 2.57112e-13 -3.92517e-22 -1.5516e-22 0 0.0570185 0.0390876 8894.67 0.0001 573 0 
12780 2 2 -0.0124 -0.00530484 9.99957e-05 0 0 0 1.0703e-07 -1.54327e-08 4.92589e-08 -2.00696e-11 3.10932e-11 -1.00655e-11 0.00032198 0.00043166 -0.000442677 0.0001 573 0 
668 1 1 -0.0120092 -0.00507576 0.000493441 0 0 0 2.01655e-07 7.90165e-07 -2.08441e-07 -2.44568e-09 -2.01736e-08 5.24229e-09 -0.000879829 0.000590221 0.00157668 0.0005 573 0 
12789 2 2 -0.0124 -0.00484668 9.99974e-05 0 0 0 -1.00812e-07 -1.55843e-08 -6.29666e-08 2.44767e-11 3.21503e-11 2.24909e-11 0.000351006 -0.000304658 -0.00043752 0.0001 573 0 
10668 2 2 -0.0119037 -0.004556 0.0001 0 0 0 0.00233325 -0.00130323 -3.3947e-13 -1.14448e-19 5.81651e-20 0 13.0323 23.3326 38.6622 0.0001 573 0 
12836 2 2 -0.0114294 -0.00513938 0.0001 0 0 0 2.15609e-05 0.000236711 1.19439e-13 1.54019e-21 7.18928e-21 0 -2.36711 0.215609 -52.8611 0.0001 573 0 
12799 2 2 -0.0112413 -0.004858 0.0001 0 0 0 0.000552955 -0.00061174 2.49464e-13 -5.14426e-21 5.02421e-20 0 6.1174 5.52955 10.4465 0.0001 573 0 
10686 2 2 -0.0113773 -0.0046599 0.0001 0 0 0 0.000475258 -0.000697742 3.64191e-13 4.83345e-20 1.69953e-20 0 6.97742 4.75258 -7.73518 0.0001 573 0 
12852 2 2 -0.0109942 -0.00527921 0.0001 0 0 0 0.00035727 -0.000319891 5.93645e-13 2.46438e-20 -2.41722e-20 0 3.19891 3.5727 43.8959 0.0001 573 0 
12839 2 2 -0.0112278 -0.00505755 0.0001 0 0 0 0.000327165 -0.000628468 4.33027e-13 2.70458e-21 -2.02118e-21 0 6.28469 3.27165 -3.99089 0.0001 573 0 
12763 2 2 -0.0110293 -0.00508232 0.0001 0 0 0 0.000369274 -0.000316012 1.04142e-13 2.94103e-21 2.46461e-20 0 3.16012 3.69274 -18.7856 0.0001 573 0 
12786 2 2 -0.0108692 -0.00543538 0.0001 0 0 0 0.00033459 -0.000342843 -1.865e-13 3.46802e-21 -2.46423e-20 0 3.42843 3.3459 2.3538 0.0001 573 0 
12843 2 2 -0.0104726 -0.00493144 0.0001 0 0 0 0.000344115 -0.00109341 3.64191e-13 2.51197e-20 -9.85698e-20 0 10.9341 3.44116 -47.7259 0.0001 573 0 
12759 2 2 -0.0106724 -0.0049203 0.0001 0 0 0 0.000356712 -0.000117012 2.80058e-13 2.46441e-20 -3.41129e-21 0 1.17012 3.56713 34.9075 0.0001 573 0 
1268 1 1 -0.010611 -0.005242 0.000981289 0 0 0 -1.86974e-07 1.96895e-06 5.39889e-07 1.48446e-08 -5.64597e-09 3.22583e-09 0.000150265 0.00208647 -0.00192372 0.0005 573 0 
12870 2 2 -0.0106558 -0.00530338 0.0001 0 0 0 0.000966773 -0.000190391 4.25379e-13 -5.53633e-20 -1.25599e-20 0 1.90391 9.66773 -33.9036 0.0001 573 0 
12794 2 2 -0.0107885 -0.00475738 0.0001 0 0 0 -1.94393e-05 -0.000379905 -3.54767e-13 1.56997e-21 1.06743e-20 0 3.79905 -0.194393 -20.8746 0.0001 573 0 
12813 2 2 -0.0109661 -0.00466553 0.0001 0 0 0 0.000146261 -5.33825e-05 2.64761e-13 4.76635e-21 -2.25108e-21 0 0.533825 1.46261 15.0706 0.0001 573 0 
12809 2 2 -0.0107236 -0.00511521 0.0001 0 0 0 0.000897033 -0.000214538 -4.08306e-13 -1.01433e-19 -2.48818e-20 0 2.14538 8.97033 30.1581 0.0001 573 0 
12851 2 2 -0.0108674 -0.00496491 0.0001 0 0 0 0.000410397 -0.000369174 3.79488e-13 2.19163e-20 -2.51214e-20 0 3.69174 4.10397 -30.8128 0.0001 573 0 
12798 2 2 -0.0110407 -0.0048649 0.0001 0 0 0 0.000329408 -0.000546186 -5.45979e-13 1.36843e-20 -4.92876e-20 0 5.46186 3.29408 121.346 0.0001 573 0 
12807 2 2 -0.011166 -0.00467272 0.0001 0 0 0 0.000157584 -0.000446868 -5.99518e-13 1.25607e-20 -4.9768e-20 0 4.46868 1.57584 -8.29044 0.0001 573 0 
12783 2 2 -0.0103867 -0.00534755 0.0001 0 0 0 0.000421939 8.32576e-06 -4.46549e-13 4.53075e-20 7.58157e-22 0 -0.0832576 4.21939 226.312 0.0001 573 0 
12812 2 2 -0.00991184 -0.00539879 0.0001 0 0 0 2.98748e-05 -0.00022734 3.25948e-13 1.10172e-22 -1.95786e-22 0 2.2734 0.298748 22.7821 0.0001 573 0 
12793 2 2 -0.00958003 -0.00485226 0.0001 0 0 0 0.000849768 -0.000135822 2.95354e-13 2.1928e-21 -4.97478e-21 0 1.35822 8.49768 -9.78467 0.0001 573 0 
12819 2 2 -0.0101866 -0.0053457 0.0001 0 0 0 0.000445341 -0.000370229 -7.94213e-14 4.00377e-20 2.46465e-20 0 3.70229 4.45341 129.26 0.0001 573 0 
1459 1 1 -0.00943375 -0.00532797 0.000455576 0 0 0 -2.8226e-07 1.18681e-06 5.47025e-08 6.41516e-09 -7.57382e-10 3.73831e-09 -0.00150368 7.41534e-05 -0.0034032 0.0005 573 0 
12862 2 2 -0.0102725 -0.00492947 0.0001 0 0 0 0.000376731 3.25058e-05 -2.55336e-13 -2.46435e-20 3.08056e-21 0 -0.325058 3.76731 209.229 0.0001 573 0 
12791 2 2 -0.009641 -0.00455345 0.0001 0 0 0 -0.000807168 0.00117033 4.02433e-13 -9.95253e-20 3.8011e-20 0 -11.7033 -8.07168 -156.119 0.0001 573 0 
12835 2 2 -0.00982384 -0.00487604 0.0001 0 0 0 9.09399e-05 -0.00146624 -2.93579e-13 6.27984e-21 -1.00478e-19 0 14.6624 0.909399 -366.022 0.0001 573 0 
12838 2 2 -0.00938788 -0.00464527 0.0001 0 0 0 -0.000782522 -5.59612e-07 -4.88273e-14 3.38619e-20 -4.90647e-23 0 0.00559612 -7.82522 -55.9445 0.0001 573 0 
12752 2 2 -0.00892383 -0.00533461 0.0001 0 0 0 -0.000627411 0.000566676 -6.45409e-13 4.92871e-20 -4.92854e-20 0 -5.66676 -6.27411 -54.9521 0.0001 573 0 
12785 2 2 -0.00841037 -0.00480909 0.0001 0 0 0 -0.0003799 0.000427345 -1.40609e-13 2.46455e-20 3.7385e-20 0 -4.27345 -3.799 123.672 0.0001 573 0 
475 1 1 -0.00833177 -0.00525502 0.000499999 0 0 0 0.00012413 -5.42583e-05 2.17302e-12 9.92062e-19 -4.96028e-19 0 0.108517 0.24826 2.68032 0.0005 573 0 
13364 2 2 -0.00764588 -0.00542525 0.0001 0 1 0 -0.000846585 0.00251825 2.76575e-14 -9.95359e-20 -5.08e-21 0 -25.1825 -8.46586 52.9984 0.0001 573 0 
1560 1 1 -0.00723914 -0.00458628 0.00049478 0 0 0 -1.36734e-06 1.67959e-06 4.39132e-07 2.38161e-08 8.30949e-09 6.67171e-09 0.000446587 -0.00222574 -0.00384035 0.0005 573 0 
8088 2 2 -0.00548226 -0.00547684 0.0001 0 0 0 0.00106904 -0.00275993 -4.77143e-13 -9.66588e-20 2.00956e-19 0 27.5993 10.6904 -11.5373 0.0001 573 0 
8024 2 2 -0.00561512 -0.00532605 0.0001 0 0 0 -7.43542e-05 -0.00359308 2.95354e-13 -3.84001e-21 1.27725e-19 0 35.9308 -0.743542 13.1815 0.0001 573 0 
8029 2 2 -0.00591609 -0.00486708 0.0001 0 0 0 2.3184e-05 6.74404e-05 3.10651e-13 -1.54015e-21 -6.28003e-21 0 -0.674405 0.23184 48.9896 0.0001 573 0 
332 1 1 -0.00608744 -0.00531061 0.000469792 0 0 0 -9.39857e-07 2.671e-06 -6.10878e-08 -1.43257e-08 2.25258e-09 4.79423e-09 -0.00107549 -0.00236224 -0.00179972 0.0005 573 0 
1556 1 1 -0.00557433 -0.00450167 0.00047764 0 0 0 4.46592e-07 2.40073e-06 4.14569e-07 -5.70982e-09 3.3979e-09 5.527e-09 -0.0014687 0.000852255 0.00012952 0.0005 573 0 
8100 2 2 -0.00596218 -0.00482603 0.000800688 0 0 0 -2.03664e-07 2.51276e-06 5.67291e-07 -9.92787e-11 7.8552e-11 4.42734e-11 0.00568868 -0.00822308 -0.0136407 0.0001 573 0 
8101 2 2 -0.00589726 -0.00451793 0.000983062 0 0 0 3.3463e-07 3.33735e-06 8.36866e-07 -3.8925e-11 1.10723e-10 7.41635e-12 0.00152923 -0.0051811 -0.00390172 0.0001 573 0 
8006 2 2 -0.0061182 -0.00519474 0.00105769 0 0 0 0.00112572 0.000774795 -9.33086e-05 2.67822e-09 2.21292e-09 -3.49013e-10 336.166 -1284.67 -6576.33 0.0001 573 0 
8038 2 2 -0.0057351 -0.00499541 0.0001 0 0 0 -0.00198052 0.00323905 -6.37761e-13 8.06239e-20 -1.51548e-19 0 -32.3905 -19.8053 14.2737 0.0001 573 0 
8061 2 2 -0.00540456 -0.0052884 0.0001 0 0 0 0.00127196 -0.00174859 3.25948e-13 -4.95313e-20 1.29346e-19 0 17.4859 12.7196 -6.54997 0.0001 573 0 
8054 2 2 -0.00558557 -0.00512824 0.0001 0 0 0 -0.00706897 -0.00253489 8.34146e-11 -4.65367e-09 -4.97822e-09 -2.90365e-12 25.3489 -70.6897 72.4432 0.0001 573 0 
8077 2 2 -0.005239 -0.00517576 0.0001 0 0 0 0.000305037 -0.000166246 -3.24173e-13 -2.46427e-20 1.25603e-20 0 1.66246 3.05038 25.1585 0.0001 573 0 
11173 2 2 -0.00548012 -0.00495831 0.0001 0 0 0 -0.00837394 -0.00172508 -2.65781e-09 -1.29572e-08 -1.24896e-10 -3.32027e-11 -1170.87 -2281.69 -657.324 0.0001 573 0 
205 1 1 -0.00481021 -0.0053743 0.000470317 0 0 0 -8.50177e-07 3.97288e-06 -9.05892e-08 -1.51837e-08 7.61156e-09 -2.76003e-10 -0.00341078 -0.00131294 -0.00175652 0.0005 573 0 
8117 2 2 -0.0035479 -0.00503407 0.0001 0 0 0 -0.00045303 -0.000633172 -1.78852e-13 -4.97655e-20 -8.96612e-21 0 6.33172 -4.5303 15.006 0.0001 573 0 
242 1 1 -0.00298737 -0.00504414 0.00045903 0 0 0 3.76123e-07 6.19513e-06 1.14743e-07 -8.49897e-09 1.60296e-08 -7.92966e-10 -0.00545227 0.00155691 -0.00331206 0.0005 573 0 
816 1 1 -0.00214454 -0.0049679 0.00106033 0 0 0 -4.9233e-08 1.09891e-05 -3.13894e-07 -1.92732e-08 2.46234e-08 -3.21462e-10 -0.00520608 0.00186928 -0.00220573 0.0005 573 0 
12130 2 2 -0.00174775 -0.00495145 0.0001 0 1 0 -0.00144583 -0.000309162 -4.23603e-13 -6.60788e-20 1.94286e-20 0 3.09162 -14.4583 798.247 0.0001 573 0 
11158 2 2 -0.00201878 -0.00516546 0.0001 0 0 0 -0.00186339 -0.00125783 2.26518e-13 8.12776e-20 9.85807e-20 0 12.5783 -18.6339 22.8735 0.0001 573 0 
1153 1 1 -0.00147508 -0.00535934 0.000479279 0 0 0 1.85273e-08 6.55689e-06 -6.89048e-07 -8.71646e-09 1.18076e-08 -2.28086e-09 -0.00355624 -0.00329863 -0.00260103 0.0005 573 0 
11216 2 2 -0.00153531 -0.00478352 0.0001 0 0 0 -0.000583202 7.1994e-05 4.71205e-15 -5.02421e-20 6.28019e-21 0 -0.71994 -5.83202 -20.086 0.0001 573 0 
11233 2 2 -0.00123786 -0.00475384 0.0001 0 0 0 -0.000143056 -7.57538e-05 3.41245e-13 1.2321e-20 -6.161e-21 0 0.757538 -1.43056 -20.3488 0.0001 573 0 
11168 2 2 -0.00137493 -0.00490334 0.0001 0 0 0 -0.000509719 0.000161765 -2.93644e-15 4.83317e-20 -1.2321e-20 0 -1.61765 -5.09719 15.9705 0.0001 573 0 
11217 2 2 -0.00111234 -0.00491119 0.0001 0 0 0 -3.00297e-05 1.40307e-06 -6.68355e-13 -3.11038e-21 1.59415e-23 0 -0.0140307 -0.300297 84.6262 0.0001 573 0 
11153 2 2 -0.00107372 -0.00511192 0.0001 0 0 0 0.000106924 1.50193e-05 3.71839e-13 9.81963e-21 8.33283e-22 0 -0.150193 1.06924 -1716.82 0.0001 573 0 
11175 2 2 -0.000924292 -0.005307 0.0001 0 0 0 0.000142214 -0.000505715 -6.68355e-13 1.06247e-20 -4.03994e-20 0 5.05715 1.42214 26.3582 0.0001 573 0 
11209 2 2 -0.000690135 -0.0053848 0.0001 0 0 0 -0.000711601 -9.98264e-05 -3.08876e-13 -4.92858e-20 -6.16058e-21 0 0.998265 -7.11602 -106.017 0.0001 573 0 
1529 1 1 -0.000634621 -0.00489924 0.000462865 0 0 0 8.20865e-07 7.15241e-06 -1.02116e-06 -7.24423e-09 1.5289e-08 -1.77317e-09 -0.00567806 0.0039277 0.00638652 0.0005 573 0 
11213 2 2 -0.00048978 -0.00538789 0.0001 0 0 0 -0.00070357 -0.000272866 -6.76003e-13 -5.02407e-20 1.07243e-20 0 2.72866 -7.03571 94.497 0.0001 573 0 
11180 2 2 -0.00102011 -0.00456739 0.0001 0 0 0 4.83442e-05 3.20879e-05 3.25948e-13 -9.0017e-22 3.08026e-21 0 -0.320879 0.483443 117.432 0.0001 573 0 
11243 2 2 -0.000284306 -0.0052992 0.0001 0 0 0 -0.000557639 0.000486385 -4.77143e-13 -5.02392e-20 -4.92579e-20 0 -4.86385 -5.57639 -76.3851 0.0001 573 0 
11185 2 2 -0.000145386 -0.00496184 0.0001 0 0 0 0.000465197 0.00116341 3.56542e-13 4.9768e-20 -1.00484e-19 0 -11.6341 4.65197 25.5857 0.0001 573 0 
11154 2 2 -1.56788e-05 -0.00512002 0.0001 0 0 0 0.000143959 0.000759929 -3.93009e-13 5.75697e-21 -4.83531e-20 0 -7.59929 1.43959 -45.5422 0.0001 573 0 
13542 2 2 -8.37303e-05 -0.00531749 0.0001 0 0 0 -0.000493182 0.000788284 2.72409e-13 -4.9294e-20 5.02386e-20 0 -7.88284 -4.93182 1404.09 0.0001 573 0 
13575 2 2 -1.12176e-05 -0.00475726 0.0001 0 0 0 -0.00203635 0.0030236 6.47185e-13 -1.97164e-19 1.97156e-19 0 -30.236 -20.3635 18.3435 0.0001 573 0 
12765 2 2 -0.0115239 -0.0044618 0.0001 0 0 0 0.00313928 -0.000312339 -8.70698e-14 -1.0025e-19 -1.26525e-20 0 3.12339 31.3928 -64.361 0.0001 573 0 
12774 2 2 -0.0116224 -0.00405894 0.0001 0 0 0 -0.000189808 0.000368697 2.64761e-13 1.20848e-20 -1.40566e-20 0 -3.68697 -1.89809 -13.2964 0.0001 573 0 
12848 2 2 -0.0123493 -0.00436591 0.0001 0 0 0 0.000237958 -0.00135007 3.48894e-13 7.27249e-21 -5.83463e-20 0 13.5007 2.37958 -9.69863 0.0001 573 0 
1198 1 1 -0.0120243 -0.00376709 0.00044972 0 0 0 8.77937e-08 2.55237e-08 3.16197e-08 -2.21547e-11 2.37854e-09 -6.25221e-10 1.14391e-05 0.00011338 -0.000131694 0.0005 573 0 
12826 2 2 -0.0116187 -0.0042796 0.0001 0 0 0 0.00199224 -0.000605209 4.25379e-13 1.17131e-19 -5.02392e-20 0 6.05209 19.9224 41.8434 0.0001 573 0 
12795 2 2 -0.0115163 -0.0036788 0.0001 0 0 0 -4.25351e-05 -0.000124109 2.03573e-13 1.36161e-21 1.25599e-20 0 1.24109 -0.425351 -10.1358 0.0001 573 0 
12784 2 2 -0.0115088 -0.00389383 0.0001 0 0 0 8.94727e-05 0.000202697 -2.24743e-13 3.41637e-21 -7.82938e-21 0 -2.02697 0.894727 9.14834 0.0001 573 0 
12866 2 2 -0.0112061 -0.00414482 0.0001 0 0 0 0.00163882 0.000471775 6.54833e-13 3.10279e-20 -5.70762e-21 0 -4.71775 16.3882 -25.1361 0.0001 573 0 
12782 2 2 -0.0111688 -0.00447271 0.0001 0 0 0 0.00073565 -0.000427433 3.48894e-13 -2.66734e-20 1.74197e-21 0 4.27433 7.3565 -5.79705 0.0001 573 0 
12803 2 2 -0.011088 -0.00398296 0.0001 0 0 0 0.00114001 0.000868178 3.79488e-13 -9.85931e-20 -9.95328e-20 0 -8.68178 11.4001 60.2801 0.0001 573 0 
12841 2 2 -0.0108852 -0.0040889 0.0001 0 0 0 0.0010067 0.000317948 -2.47688e-13 -9.6679e-20 1.38479e-20 0 -3.17948 10.067 -114.528 0.0001 573 0 
12781 2 2 -0.0105507 -0.00373239 0.0001 0 0 0 0.00209342 0.000792761 -5.23033e-13 7.50471e-20 4.51589e-20 0 -7.92761 20.9343 51.9992 0.0001 573 0 
12829 2 2 -0.0109879 -0.00426518 0.0001 0 0 0 0.000359077 0.000553315 -1.17664e-13 -2.41666e-20 -5.02408e-20 0 -5.53315 3.59077 42.2404 0.0001 573 0 
12863 2 2 -0.0108671 -0.0044413 0.0001 0 0 0 -1.49485e-06 4.505e-05 6.58999e-14 9.81276e-23 3.14015e-21 0 -0.450501 -0.0149485 -6.78034 0.0001 573 0 