ITEM: TIMESTEP
7939000
ITEM: NUMBER OF ATOMS
9350
ITEM: BOX BOUNDS mm pp mm
-0.01 0.01
-0.0075 0.0075
0 0.03
ITEM: ATOMS id type type x y z ix iy iz vx vy vz fx fy fz omegax omegay omegaz radius f_Temp[0] f_heatSource[0] f_heatFlux[0] c_coord[0] 
1360 1 1 -0.00949677 -0.00681739 0.000503206 0 0 0 -0.0135727 -0.00191549 0.0137554 -0.0102381 0.0290029 0.0104715 23.322 -13.7769 -62.1351 0.000503314 1014.88 0.00418867 -0.000731417 1 
1101 1 1 -0.00876954 -0.00751814 0.000506664 0 0 0 -0.0117587 0.0292731 0.0170006 0.0596502 -0.0462636 -0.000229227 -20.75 -25.5389 131.893 0.00050674 1471.74 0.00418867 -0.000969331 3 
2577 1 1 -0.00775511 -0.00681185 0.000510917 0 0 0 -0.0665234 0.0500095 -0.0405303 0.0162901 -0.0122873 -0.0124581 -76.8713 -90.9806 202.896 0.000510951 2033.06 0.00418867 -0.00685197 2 
1795 1 1 -0.00689954 -0.00722432 0.00089368 0 0 0 -0.0432467 0.144891 0.0149783 0.088219 -0.110389 0.0462739 51.4364 -45.9366 52.126 0.000513484 2370.8 0.00418867 -0.00594783 5 
2282 1 1 -0.0059421 -0.00711593 0.000516249 0 0 0 0.0406347 0.0446882 0.00724064 -0.0938848 -0.146033 0.223285 -144.483 79.3201 68.8423 0.000517055 2846.98 0.00418867 -0.00783278 4 
1904 1 1 -0.00500065 -0.00668565 0.000518852 0 0 0 0.0774445 0.0296221 -0.0156626 -0.0152978 -0.00799265 0.00327972 122.64 -152.112 -154.933 0.000518116 2988.49 0.00418867 -0.0061533 1 
792 1 1 -0.00380965 -0.00651806 0.000521276 0 1 0 -0.0431622 -0.00208629 5.65144e-05 0.0453919 -0.0164005 -0.00419661 -1.24807 -75.5784 -469.339 0.000521737 3471.26 0.00418867 -0.00551071 2 
1266 1 1 -0.00287134 -0.00708063 0.00052269 0 0 0 -0.0733356 -0.0230218 0.00180585 -0.112121 -0.112894 -0.0858774 -74.912 -104.516 81.5896 0.000523049 3646.18 0.00418867 -0.00218778 4 
219 1 1 -0.00185789 -0.00681744 0.000525962 0 0 0 -0.0588048 -0.0364192 -0.0167945 0.0209104 -0.106388 0.0135376 -31.4398 22.045 -78.6771 0.000523906 3760.51 0.00418867 -0.00264819 5 
599 1 1 -0.00083396 -0.00654336 0.000524204 0 0 0 0.00228764 -0.0116143 -0.00594333 0.00850162 -0.0292583 0.000673711 4.97455 -0.343754 50.3339 0.00052429 3811.66 0.00418867 -0.00389313 3 
1115 1 1 -2.5249e-05 -0.00721055 0.000524226 0 0 0 -0.00187117 -0.00718197 6.94674e-05 0.00233738 0.000888003 -0.0051765 -6.31817 -16.0141 -48.6778 0.000524341 3818.52 0.00418867 -0.0041029 4 
1295 1 1 -0.00949643 -0.00577216 0.000503277 0 0 0 -0.0109606 0.0233054 -0.000522522 -0.00222738 0.00912374 0.0411797 -86.3572 -12.3821 41.8974 0.000503783 1077.36 0.00418867 -0.00357827 4 
620 1 1 -0.00861118 -0.00626055 0.00051169 0 0 0 -0.0566532 -0.00235083 -0.0460635 -0.0164709 -0.00132327 -0.00714425 -50.294 182.252 -134.28 0.000507595 1585.69 0.00418867 -0.00650717 2 
1012 1 1 -0.00772757 -0.00568895 0.000510543 0 0 0 0.114212 0.0969467 -0.00399579 0.0358882 0.00148806 0.117553 -156.812 197.613 227.736 0.000511186 2064.52 0.00418867 -0.00245152 3 
1283 1 1 -0.00688406 -0.00627023 0.000513817 0 0 0 0.0436102 0.124678 -0.0211415 0.0928216 -0.0404572 0.00485281 -59.6441 -88.9914 -138.074 0.000513291 2344.94 0.00418867 -0.0146572 1 
2369 1 1 -0.00587014 -0.00608547 0.00051612 0 0 0 -0.0129768 0.085647 -0.00749712 -0.0058598 -0.163933 0.147738 147.76 38.7887 -7.02762 0.000517017 2841.96 0.00418867 -0.000403746 4 
574 1 1 -0.00491622 -0.00564789 0.000518485 0 0 0 0.0132642 -0.0245924 -0.0164821 -0.0662982 0.058919 -0.032008 37.868 8.25352 222.259 0.000518454 3033.69 0.00418867 0.00484569 2 
2537 1 1 -0.00259352 -0.00607215 0.00052311 0 0 0 -0.0965198 -0.0508132 -0.0321874 0.0885346 0.0959482 0.198821 52.2057 -121.048 -84.1105 0.000523694 3732.12 0.00418867 -0.00611213 5 
615 1 1 -0.00158023 -0.00580759 0.000523485 0 0 0 -0.0121895 -0.0303039 -0.0134393 0.051113 0.00809012 -0.0820382 19.8412 -35.2529 -12.7479 0.000523995 3772.34 0.00418867 -0.000255386 7 
2725 1 1 -0.00949679 -0.00452062 0.000503386 0 0 0 0.0157271 0.0822338 -0.00423787 -0.0227823 -0.0382309 -0.00573101 -4.75822 20.4767 159.479 0.000503466 1035.17 0.00418867 -0.00120683 2 
300 1 1 -0.00864156 -0.00523555 0.000538692 0 0 0 0.00464594 0.000672828 0.00811739 -0.000511513 -0.000194321 -2.13678e-05 33.7335 -39.9226 -22.9127 0.000506172 1395.98 0.00418867 -0.0039521 1 
218 1 1 -0.0076144 -0.00467326 0.000510867 0 0 0 0.0125605 0.109285 -0.00254307 0.0595831 0.0992138 0.0359488 -22.6319 4.22047 -1.62376 0.000511246 2072.36 0.00418867 -0.00826373 5 
1378 1 1 -0.00676676 -0.00524948 0.000513804 0 0 0 0.00824725 0.0136088 -0.00918819 -0.0270496 -0.0499898 0.117403 -53.6639 32.8681 -72.8665 0.000514048 2446.09 0.00418867 -0.00170463 3 
2561 1 1 -0.00576246 -0.00506762 0.000653586 0 0 0 0.0598864 0.0647742 0.0132194 0.0285786 0.174479 0.0531111 -146.967 -76.3276 -99.0058 0.000516565 2781.79 0.00418867 0.000163709 5 
1823 1 1 -0.00412394 -0.00496925 0.000520573 0 0 0 0.0291677 -0.00659691 -0.022051 -0.0407777 -0.0252093 -0.0716095 15.1224 61.1891 116.17 0.000520812 3347.98 0.00418867 -0.0013097 2 
227 1 1 -0.00309679 -0.00515507 0.000522766 0 0 0 -0.0601391 0.0472004 0.0128879 -0.06032 0.00609729 0.0109982 46.2102 34.2575 -49.8922 0.000522973 3636.2 0.00418867 -0.000210671 3 
323 1 1 -0.00208327 -0.00488937 0.000525814 0 0 0 0.0152069 0.052372 -0.0616367 0.0199242 -0.0627393 0.0397738 19.1868 -65.6317 -90.4762 0.000523805 3747.02 0.00418867 -0.00351999 3 
1180 1 1 -0.000585541 -0.00547816 0.000523889 0 0 0 -0.016731 -0.00723506 0.00503362 0.0242487 0.0199943 0.0189675 24.8268 -14.5781 3.4015 0.000524191 3798.43 0.00418867 -0.00350403 4 
413 1 1 -0.00852982 -0.0042277 0.000507145 0 0 0 0.0232935 0.118008 -0.00545834 0.00525241 0.0698988 0.00318703 76.4005 -7.26365 -79.7766 0.000507241 1538.54 0.00418867 -0.00337226 3 
1175 1 1 -0.00781158 -0.0035017 0.000515839 0 0 0 0.0396838 -0.016832 0.00975407 0.000245436 -0.000706728 -1.93695e-05 -34.6642 -129.709 10.7806 0.000513373 2355.95 0.00418867 -0.011626 1 
1387 1 1 -0.00669355 -0.00422227 0.000514525 0 0 0 0.0213281 0.00178845 0.0146778 0.0635176 0.0785313 0.00690656 11.2252 -51.2462 -158.436 0.00051433 2483.61 0.00418867 -0.0103534 2 
1741 1 1 -0.0056771 -0.00404707 0.000516755 0 0 0 0.0143995 -0.0294383 0.000299094 0.0228846 0.229509 -0.0217604 126.13 94.2112 157.441 0.000517238 2871.49 0.00418867 -0.00126322 4 
2724 1 1 -0.0046339 -0.00404764 0.000523227 0 0 0 0.00402779 -0.0198264 0.00606269 -0.0204612 -0.0023279 -0.0198939 -9.74773 -57.1977 -127.595 0.00052298 3636.97 0.00418867 -0.0068028 1 
1241 1 1 -0.00344935 -0.00417139 0.000522058 0 0 0 -0.0788613 0.0440215 -0.0113309 0.0247494 -0.0439136 -0.0231213 -41.7272 -150.844 78.9511 0.000522389 3558.22 0.00418867 -0.00342256 3 
2717 1 1 -0.00243849 -0.00390548 0.00052246 0 0 0 -0.0671235 -0.00176418 0.00123343 -0.00742436 0.119931 -0.039343 71.679 -123.549 242.523 0.000523131 3657.2 0.00418867 -0.00135604 4 
1959 1 1 -0.000941352 -0.00449259 0.000523536 0 0 0 -0.0263264 0.00719928 0.0025876 -0.012038 0.0473606 0.017519 -17.3265 -52.6955 -8.90523 0.000524138 3791.36 0.00418867 -0.00387479 5 
309 1 1 -0.000550339 -0.0035203 0.000523909 0 0 0 -0.00777926 0.00137859 0.00352527 -0.0143494 0.00538296 0.0135771 -3.68391 -12.2695 -25.8421 0.000524241 3805.15 0.00418867 -0.00415043 4 
2212 1 1 -0.00949691 -0.00287155 0.000503033 0 0 0 0.00700512 -0.0541198 0.00117422 -0.0134912 0.00982231 -0.000221732 -103.441 28.5814 32.6531 0.000503093 985.4 0.00418867 -0.0032943 2 
2682 1 1 -0.00875568 -0.00336147 0.000982022 0 0 0 0.000987072 0.0570655 0.011664 0.000126097 0.0891852 0.0433381 91.8476 -329.033 1.63344 0.000506308 1414 0.00418867 -0.00858918 4 
2278 1 1 -0.00674326 -0.00319455 0.000514379 0 0 0 -0.0312324 -0.0356096 0.028415 0.0282569 -0.043503 -0.0811586 19.2614 -8.33279 113.748 0.000514566 2515.03 0.00418867 -0.00984333 2 
1466 1 1 -0.00518659 -0.00313566 0.000522665 0 0 0 -0.0959902 0.000798491 -0.0611696 0.0263678 0.104139 0.02573 -183.323 37.9865 80.9855 0.000518252 3006.6 0.00418867 -0.0060557 3 
2470 1 1 -0.00417455 -0.00297193 0.000688606 0 0 0 -0.121821 -0.0129858 -0.0361484 -0.0200483 0.0335997 0.0266753 281.835 -69.4779 -95.2164 0.000520728 3336.76 0.00418867 -0.00571168 4 
1863 1 1 -0.00316102 -0.00315143 0.000523702 0 0 0 -0.143927 -0.0688788 -0.0235641 -0.052007 0.0336674 0.0226873 11.4298 -14.0652 -54.9622 0.000522183 3530.77 0.00418867 -0.00351414 3 
1770 1 1 -0.00234994 -0.00249109 0.000523017 0 0 0 -0.0471441 -0.0207765 0.00200858 0.00625983 0.00196101 -0.0187009 -15.4988 30.0819 57.047 0.000523154 3660.13 0.00418867 -0.00488071 2 
536 1 1 -0.00158767 -0.00325283 0.000534666 0 0 0 -0.00263183 -0.00951605 0.00151356 0 0 -6.27459e-13 14.0961 -16.3027 83.8421 0.000534494 5172.23 0.00418867 0 0 
1281 1 1 -0.000321279 -0.00249742 0.000524298 0 0 0 0.00581758 -0.00123042 0.00231046 0.00194895 -0.00784663 -0.00284608 2.83712 10.6869 -2.2496 0.000524347 3819.32 0.00418867 -0.00415065 5 
2621 1 1 -0.00949696 -0.0018654 0.000503008 0 0 0 -0.00352715 -0.051385 -0.00285209 0.00121541 -0.0335474 0.00730046 98.0985 -5.94144 2.21092 0.00050311 987.63 0.00418867 -0.00504513 3 
616 1 1 -0.00795391 -0.00248764 0.000509621 0 0 0 0.0369663 -0.01323 -0.0187526 -0.0386042 0.00755183 -0.00751612 32.9347 89.1938 286.559 0.000510674 1996.36 0.00418867 0.0012614 5 
1853 1 1 -0.00697639 -0.00218706 0.000528071 0 0 0 0.0580381 0.0774428 0.00797183 0.0438279 -0.00380674 -0.0886242 93.6401 -163.631 -131.336 0.000512861 2287.91 0.00418867 0.000812574 4 
112 1 1 -0.00599281 -0.00248806 0.000516322 0 0 0 -0.0435351 -0.0222901 -0.0108246 0.0245215 0.00667278 -0.0446802 55.987 182.197 -118.02 0.000516222 2735.99 0.00418867 -0.00463287 4 
143 1 1 -0.00535571 -0.00167274 0.000518681 0 0 0 -0.0818898 -0.0333325 -0.00585633 0.00849383 0.0626486 0.0218656 71.3004 -28.1782 151.418 0.000518772 3075.94 0.00418867 -0.0061979 3 
2210 1 1 -0.00435736 -0.00196082 0.000520346 0 0 0 -0.0733225 0.0147694 0.017847 0.00187487 -0.0106283 -0.0082295 18.2694 -36.8126 -7.83445 0.000520566 3315.1 0.00418867 -0.00439529 4 
1358 1 1 -0.00332749 -0.00212131 0.000521562 0 0 0 -0.0536392 -0.0330723 0.0112352 -0.0287659 -0.00258124 0.0133511 71.3938 -105.774 -132.167 0.000522115 3521.74 0.00418867 -0.00361956 6 
2727 1 1 -0.00132979 -0.00220316 0.000537917 0 0 0 -0.0040242 -0.0189172 0.0117076 0.00242066 -0.00029565 0.00024382 -18.3316 19.9682 29.793 0.00052631 4080.95 0.00418867 -0.00387802 1 
2478 1 1 -0.00871121 -0.00123065 0.000506758 0 0 0 0.00790306 -0.0521881 0.00148816 0.0349869 -0.0187181 -0.0309614 101.759 12.9425 91.4236 0.000507044 1512.19 0.00418867 -0.00430389 4 
2421 1 1 -0.00772768 -0.00149198 0.000510768 0 0 0 0.0224326 0.0423767 -0.04045 0.0317307 0.0775843 -0.0198001 -78.509 50.2208 -100.739 0.000510908 2027.42 0.00418867 -0.00601355 5 
2518 1 1 -0.00679415 -0.0010682 0.000516982 0 0 0 -0.0243479 -0.0160471 -0.0554937 0.039466 0.00134207 -0.0426559 -95.7485 41.697 22.2783 0.000514458 2500.57 0.00418867 -0.0102209 2 
345 1 1 -0.0050928 -0.000793786 0.00100375 0 0 0 -0.102194 -0.0719201 0.0592115 0.0262995 0.0351854 0.0839198 22.4057 -15.2513 -73.4467 0.000519171 3129.15 0.00418867 -0.00513909 5 
74 1 1 -0.00366108 -0.00113261 0.00052162 0 0 0 -0.100823 -0.0061033 0.0174935 -0.00383678 -0.0058918 0.0360527 8.87739 -84.0973 196.84 0.000522019 3508.85 0.00418867 -0.00447256 4 
1293 1 1 -0.00257988 -0.00139143 0.000522674 0 0 0 -0.0483394 0.0213578 0.0102092 -0.0322561 0.00702459 0.016104 -35.6852 -89.7732 83.2253 0.000523 3639.74 0.00418867 -0.00283686 4 
115 1 1 -0.00155909 -0.00116158 0.000523159 0 0 0 -0.0113308 -0.00726422 0.00174788 -0.0135775 -0.00465287 -0.0036918 10.7392 -18.4705 15.2689 0.000523636 3724.51 0.00418867 -0.00353936 4 
2195 1 1 -0.000560426 -0.00147695 0.000523641 0 0 0 0.000829164 8.25813e-05 0.00455599 -0.00140647 -0.00463243 -0.0035921 0.763771 3.63783 8.76383 0.000524106 3787.19 0.00418867 -0.00401544 4 
2166 1 1 -0.0092714 -0.000304055 0.000507084 0 0 0 -0.00710917 -0.0494758 -0.071547 -0.0576675 -0.0271824 -0.0869459 -23.8947 68.9507 17.599 0.000504709 1200.88 0.00418867 -0.00272696 3 
754 1 1 -0.0080577 -0.000452884 0.000508901 0 0 0 0.0113298 -0.0516984 -0.0366437 -0.0175542 0.0102842 0.00617474 83.5419 31.4976 -28.3176 0.000509091 1785.15 0.00418867 -0.00335018 2 
233 1 1 -0.0063133 0.000491234 0.000516255 0 0 0 -0.0249257 -0.0507802 -0.0714785 0.00647897 -0.033842 -0.039598 -79.4541 -53.4699 -16.7795 0.000515888 2691.31 0.00418867 -0.00612274 2 
459 1 1 -0.00595042 -0.000475346 0.000518102 0 0 0 -0.0482558 -0.0467706 -0.0173223 0.0200612 -0.0449284 -0.00331487 56.3573 -173.106 -20.9962 0.000516859 2820.81 0.00418867 -0.00428119 3 
386 1 1 -0.00520186 0.000368678 0.000520529 0 0 0 -0.0935574 0.00783612 0.00841841 0.00129384 -0.000118642 0.00472396 1.99966 -42.1842 49.7921 0.000520588 3318.18 0.00418867 -0.000824811 1 
129 1 1 -0.00430656 -0.000314002 0.000520679 0 0 0 -0.174518 -0.00946098 0.00403138 -0.0198539 0.0561211 -0.010225 25.611 16.1736 -83.0644 0.000521089 3384.86 0.00418867 -0.00298651 5 
2061 1 1 -0.00316624 0.00011068 0.000522503 0 0 0 -0.0284846 0.0298126 0.006318 -0.0114431 0.00757643 0.0267399 -38.0764 -13.9296 -52.1555 0.000522646 3592.49 0.00418867 -0.00369306 3 
1496 1 1 -0.00223274 -0.000360878 0.000522804 0 0 0 -0.02836 -0.00849679 0.00131178 -0.0277407 0.00585596 0.0250518 16.7211 -37.9248 12.0205 0.000523366 3688.52 0.00418867 -0.00360816 4 
109 1 1 -0.00115821 -0.00014524 0.000523666 0 0 0 -0.00244623 0.000272666 0.00123503 -0.00953923 0.00977512 0.010571 -2.62629 -3.32862 -28.5735 0.000524128 3790.01 0.00418867 -0.00399376 3 
1095 1 1 -0.000140455 0.000106023 0.000526512 0 0 0 -0.00167772 -0.00672328 -0.00346903 0.00547106 0.00339026 -0.000652085 -18.4164 4.18702 17.062 0.000524362 3821.27 0.00418867 -0.00435127 4 
2321 1 1 -0.00949678 0.000678194 0.000503217 0 0 0 0.00114275 -0.0260387 0.00236094 -0.00338395 0.0441934 -7.47185e-05 47.1114 20.5873 38.7565 0.00050326 1007.68 0.00418867 -0.00425156 2 
2262 1 1 -0.00850638 0.000470246 0.000519375 0 0 0 0.0145363 0.016534 -0.051174 -0.00111336 0.000459827 -0.000104235 204.513 42.3097 74.5255 0.000508872 1755.89 0.00418867 -0.00398986 1 
1880 1 1 -0.00738687 0.000596365 0.000511259 0 0 0 0.038091 0.000203091 -0.0436175 0.00553312 0.0354472 0.0426995 24.4417 39.9755 44.5342 0.000511384 2090.76 0.00418867 -0.00801853 1 
1456 1 1 -0.00676063 0.00141909 0.000514257 0 0 0 0.0211369 -0.0707538 -0.0373467 0.0313302 0.00782393 -0.0503635 134.668 48.5573 -46.6405 0.000514454 2500.14 0.00418867 -0.00472263 4 
2309 1 1 -0.00573091 0.0014902 0.000516886 0 0 0 0.0216907 0.00634239 0.0153733 -0.0712863 -0.069284 0.0703615 40.8784 63.2997 157.287 0.000517767 2941.92 0.00418867 -0.00156727 5 
2527 1 1 -0.00484626 0.0012287 0.000989905 0 0 0 0.0472114 0.00758094 0.0383548 -0.0195069 -0.148225 0.077608 -33.1044 -94.9183 -143.072 0.000519508 3174.09 0.00418867 -0.00146878 4 
1381 1 1 -0.00403359 0.000691831 0.000521572 0 0 0 -0.0755417 -0.0124704 -0.000105686 0.000264197 0.120763 0.00600292 -27.4991 57.5325 -117.973 0.000521565 3448.32 0.00418867 -0.00629478 4 
2382 1 1 -0.00309898 0.00116885 0.000524224 0 0 0 -0.0239474 0.000922175 0.0144574 -0.0636575 0.0359752 0.00185998 -1.6111 42.663 21.5331 0.00052293 3630.46 0.00418867 0.00108497 2 
2327 1 1 -0.00217189 0.000684046 0.000523099 0 0 0 -0.0173914 -0.00325843 0.00169158 0.00159148 0.00155373 0.0161263 -15.5545 -10.2006 -22.9503 0.000523535 3711.07 0.00418867 -0.00403856 3 
178 1 1 -0.000970269 0.000885981 0.000523966 0 0 0 -0.0139323 0.00267292 -0.00408664 -0.00363452 0.00855717 0.00157845 -9.05741 7.411 42.9004 0.000524243 3805.4 0.00418867 -0.00408793 4 
628 1 1 -0.0094962 0.00168579 0.000503601 0 0 0 0.0136619 -0.0514632 0.0363797 0.0107595 0.0329488 0.00551366 101.317 26.9469 -61.1346 0.000504072 1115.9 0.00418867 -0.00601262 3 
1700 1 1 -0.00777748 0.00154794 0.000510605 0 0 0 0.0526837 -0.0315672 0.00183027 -0.0119516 0.0282806 0.023526 64.1556 15.6807 -40.4292 0.000510741 2005.24 0.00418867 -0.00153047 2 
384 1 1 -0.00695614 0.00243165 0.000513686 0 0 0 -0.0192696 0.0335828 0.0272791 0.0152506 0.00811655 -0.0136409 -70.7266 -35.0533 20.6898 0.000514066 2448.55 0.00418867 -0.00314233 3 
469 1 1 -0.00493177 0.00214999 0.000518921 0 0 0 0.0742495 0.0350946 0.0198323 0.00141143 0.047446 0.0954326 28.747 47.5016 -168.057 0.000519298 3146.22 0.00418867 0.00139387 4 
2516 1 1 -0.00397789 0.00173334 0.000521523 0 0 0 -0.00486503 -0.0241991 0.0108469 0.0423229 0.0125236 -0.0353463 62.7207 -76.1504 -1.18987 0.000521686 3464.19 0.00418867 -0.0170866 4 
2566 1 1 -0.0024898 0.00205274 0.000523046 0 0 0 -0.0396789 0.0118553 0.0093352 0.0495167 0.00968924 -0.0202226 -21.2207 -84.9857 63.2009 0.000523481 3703.78 0.00418867 -0.00508917 4 
513 1 1 -0.0014719 0.00180627 0.000523822 0 0 0 -0.0429787 0.00154898 0.00121014 -0.00458091 0.00591969 0.00568539 -17.181 -0.562149 -42.2721 0.000524088 3784.76 0.00418867 -0.00410854 4 
654 1 1 -0.000331013 0.00171677 0.000524078 0 0 0 -0.0237426 0.000473549 0.00490318 -0.0067164 -0.0029942 0.00200628 11.2667 -29.2744 -25.4716 0.000524302 3813.3 0.00418867 -0.00430657 4 
1161 1 1 -0.00887669 0.00248355 0.000546982 0 0 0 0.0156659 -0.048524 0.00617564 0.0228012 0.054056 0.0140053 141.391 140.898 188.087 0.000507021 1509.11 0.00418867 -0.0073165 3 
358 1 1 -0.00870243 0.00339052 0.000968368 0 0 0 -0.112757 0.0721562 -0.110105 -0.00995684 -0.0350038 -0.000497119 -316.774 338.79 193.932 0.000508197 1666 0.00418867 -0.000332646 2 
2563 1 1 -0.007942 0.00288308 0.000510061 0 0 0 -0.0262474 0.0738842 -0.12211 0.0160591 -0.0511817 -0.0686424 -199.753 4.69406 -5.9138 0.000510164 1928.38 0.00418867 0.00299119 3 
1403 1 1 -0.00651682 0.00336229 0.000517596 0 0 0 0.0678201 0.0312582 -0.0143306 -0.00943671 0.0788795 -0.0315013 -148.485 -250.57 -178.828 0.000515312 2614.61 0.00418867 -0.00219587 2 
449 1 1 -0.00592824 0.0025052 0.000516325 0 0 0 -0.0382462 0.038085 0.0660228 0.0311088 0.00503714 -0.0266073 -2.49759 -73.8819 -41.2903 0.000516697 2799.16 0.00418867 -0.00824334 3 
1002 1 1 -0.00458906 0.0031302 0.000519821 0 0 0 0.0839301 0.0348145 0.00913986 0.0796747 0.143074 0.0177141 -6.43208 65.3648 156.84 0.000519928 3230.07 0.00418867 -0.00224193 2 
2667 1 1 -0.00332548 0.00268221 0.00052192 0 0 0 0.0283377 -0.0028434 0.0308097 -0.0254398 0.0608477 -0.016872 30.6298 60.2028 -60.5156 0.000522434 3564.06 0.00418867 -0.0105847 2 
426 1 1 -0.00185166 0.0028833 0.000523922 0 0 0 -0.0273141 0.00416061 0.0144754 -0.00244495 -0.00428501 -0.00984779 31.1357 34.6455 -79.67 0.000524039 3778.24 0.00418867 -0.00389123 3 
1500 1 1 -0.000832899 0.00263702 0.000523879 0 0 0 -0.0131901 -0.000463526 -0.00131934 -0.00593603 -0.001028 0.00969211 0.83833 -18.9277 -4.55172 0.000524227 3803.26 0.00418867 -0.00396697 4 
1397 1 1 -0.00949695 0.00381312 0.000502685 0 0 0 0.000811733 -0.13753 -0.00189338 -0.000688015 -0.0125741 0.0364379 273.202 1.41456 67.7232 0.000503053 980.131 0.00418867 -0.00414398 1 
758 1 1 -0.00797147 0.00393061 0.000509769 0 0 0 0.00969015 -0.099019 -0.0841628 -0.0212485 0.0206725 0.155339 90.0903 -363.894 156.338 0.000509827 1883.26 0.00418867 -0.00737422 1 
2412 1 1 -0.00700403 0.00427425 0.000514066 0 0 0 0.0189749 -0.0482221 0.0401476 0 0 -5.58232e-13 70.0447 23.4608 151.718 0.000514066 2448.56 0.00418867 0 0 
2218 1 1 -0.00550232 0.00362734 0.000519133 0 0 0 0.0170372 0.0145761 0.0275602 0.00216531 0.00156822 0.103892 -36.5144 44.471 -145.307 0.000519397 3159.39 0.00418867 0 0 
263 1 1 -0.00600711 0.00453372 0.000567041 0 0 0 0.028512 0.0492726 -0.0125936 -0.0631811 0.000390094 -0.015235 -171.667 37.962 29.4488 0.00051736 2888.07 0.00418867 0.0196584 1 
136 1 1 -0.00427622 0.00412191 0.00052017 0 0 0 -0.0305941 0.021201 0.0139139 0.00710617 0.124135 0.0195572 -2.45955 -75.0555 37.6434 0.000520554 3313.53 0.00418867 -0.00392547 4 
963 1 1 -0.00307743 0.00407015 0.000522503 0 0 0 -0.0674308 0.0363435 0.0100529 -0.00990657 -0.000979739 -0.0148035 -50.0135 31.3754 -57.1132 0.000522707 3600.65 0.00418867 -0.00404221 3 
632 1 1 -0.00205865 0.00430626 0.000523087 0 0 0 -0.0299055 0.00858395 0.00126706 -0.0296885 0.00612301 0.0175809 -21.5234 -32.9518 -10.6969 0.000523629 3723.48 0.00418867 -0.00385891 5 
1018 1 1 -0.00119838 0.00370895 0.000523681 0 0 0 -0.0264873 -0.00211476 0.000375622 -0.0190431 -0.0031993 -0.00994586 28.9184 -22.1715 -4.82713 0.000524032 3777.28 0.00418867 -0.00402205 2 
885 1 1 -0.000124794 0.0036775 0.000524548 0 0 0 -0.0553721 0.00895071 -0.00232853 0.00645418 -0.0117517 0.00138981 -13.5614 37.0675 -86.2815 0.000524595 3852.3 0.00418867 -0.00425988 3 
76 1 1 -0.00949613 0.00536941 0.000505778 0 0 0 0.00643347 -0.00664011 -0.0355914 -0.00515502 0.000487 -0.000921922 -72.3889 71.4814 -13.015 0.000503877 1089.77 0.00418867 -0.0119067 1 
508 1 1 -0.00885241 0.00459151 0.000505975 0 0 0 -0.00923075 -0.0194224 0.0145282 -0.0295679 -0.0445084 -0.0782421 43.079 -29.3181 90.8372 0.000505827 1350.24 0.00418867 0.0120463 1 
868 1 1 -0.00778813 0.00493558 0.000511648 0 0 0 -0.0823065 -0.0915964 -0.00275497 0.00734548 -0.000797502 -0.060347 104.847 110.53 -27.5486 0.000511658 2127.46 0.00418867 -0.00391613 2 
1166 1 1 -0.00673326 0.00526691 0.000515082 0 0 0 0.0437332 0.000569827 0.0379951 0 0 -5.60616e-13 -27.2696 101.648 -166.261 0.000514797 2545.99 0.00418867 0 0 
2227 1 1 -0.00572035 0.00553402 0.000534602 0 0 0 0.00510091 0.0231141 -0.0132572 0 0 -5.9023e-13 125.33 -152.232 12.6468 0.000523706 3733.91 0.00418867 0 0 
1138 1 1 -0.00504778 0.00468619 0.000929261 0 0 0 -0.00960813 0.101542 0.0186646 -0.00261535 -0.0221658 0.0616637 -8.22621 45.5657 -240.905 0.000519481 3170.26 0.00418867 -0.013992 4 
222 1 1 -0.00453794 0.0054941 0.000520003 0 0 0 0.0980112 0.0814952 -0.00116791 -0.0080868 -0.0225642 0.0548058 18.8214 -28.6692 30.6079 0.000520211 3267.81 0.00418867 -0.00300501 2 
2679 1 1 -0.00364218 0.00494899 0.000522068 0 0 0 -0.0823953 0.0364175 0.0168464 0.0285156 -0.0109046 -0.0285309 7.33161 79.8448 81.8039 0.000522146 3525.79 0.00418867 -0.00543822 4 
2253 1 1 -0.00262443 0.00518676 0.000523113 0 0 0 -0.0701721 -0.00492825 -0.000412687 0.0317879 0.0451072 0.00593202 31.1553 -22.0423 98.9919 0.000523295 3679 0.00418867 -0.00574866 4 
1233 1 1 -0.00136509 0.00532172 0.000523822 0 0 0 -0.0112083 0.0271993 -0.00861846 -0.00598293 -0.0042312 0.00136996 -52.6819 -27.0735 -101.914 0.000524243 3805.42 0.00418867 -0.00436482 4 
1421 1 1 -0.00058606 0.00461971 0.000524839 0 0 0 -0.0235763 0.0197743 0.00271426 -0.00622793 -0.0108577 -0.00392659 32.5848 -30.7102 27.3927 0.000524571 3849.17 0.00418867 -0.00437757 3 
1503 1 1 -0.00852198 0.00564378 0.000508461 0 0 0 0.00243621 0.0140828 -0.00489315 -0.00614 -0.024113 -0.00885257 -14.0239 -160.536 52.689 0.000508185 1664.37 0.00418867 -0.00217464 2 
682 1 1 -0.00754163 0.0059296 0.000512611 0 0 0 -0.0207208 -0.0565374 0.0264959 -0.00318187 0.00912958 0.00219356 -28.7991 -1.5385 -80.6556 0.000512496 2239.2 0.00418867 -0.0018381 2 
1136 1 1 -0.00655971 0.00628193 0.00051392 0 0 0 0.0390608 -0.0563708 0.0538502 -0.0984957 -0.0379005 0.00895412 107.513 69.1559 0.209649 0.000514594 2518.97 0.00418867 -0.001478 2 
1117 1 1 -0.00547185 0.00655171 0.00052442 0 0 0 -0.0124662 0.00567394 0.0233304 0 0 -5.88104e-13 -67.0028 -16.9195 28.637 0.000523077 3649.97 0.00418867 0 0 
1637 1 1 -0.00433146 0.00651442 0.000522204 0 0 0 -0.00506976 0.0647878 0.0223753 0.0307635 0.0550547 -0.0167555 31.5085 79.2348 156.325 0.000520985 3370.98 0.00418867 -0.00645435 2 
57 1 1 -0.00343956 0.00597313 0.000522156 0 0 0 -0.0601662 0.00276944 -0.00671936 0.0148046 -0.0441214 -0.043215 -41.2963 -35.7718 -147.081 0.000522313 3548.08 0.00418867 -0.00288116 3 
221 1 1 -0.00227812 0.00615482 0.000718933 0 0 0 -0.0668958 -0.0285591 -0.038311 0.0885194 -0.0372711 -0.0587857 -45.3548 119.703 -89.4763 0.000523583 3717.35 0.00418867 -0.00778942 5 
1367 1 1 -0.0012742 0.00638399 0.00052405 0 0 0 -0.108785 -0.00711824 0.0141561 -0.00358532 0.00623628 0.00978673 45.9516 -79.3565 87.8336 0.000524513 3841.41 0.00418867 -0.00406101 3 
2032 1 1 -0.000398904 0.00572839 0.000524178 0 0 0 -0.00586552 -0.00108138 0.000957292 0.00224187 -0.00467452 -0.0037973 -28.5724 -26.0845 42.2615 0.00052441 3827.64 0.00418867 -0.0043863 4 
1303 1 1 -0.00945317 0.00673654 0.000504379 0 0 0 0.0422529 -0.0890287 0.066265 -0.0161868 -0.0273355 -0.085055 201.68 72.0665 -70.8824 0.000504559 1180.61 0.00418867 -0.0149562 2 
606 1 1 -0.00850199 0.00658332 0.000895676 0 0 0 -0.0462104 0.00804884 0.0094858 0.00530063 0.0261123 0.00861342 39.688 -116.915 -85.7993 0.000508313 1681.32 0.00418867 -0.00705149 2 
1384 1 1 -0.00735044 0.00693669 0.000512301 0 0 0 -0.0145434 0.00427705 0.0708992 0.0105325 0.0199692 -0.00882468 -16.5913 -60.757 -24.5968 0.000512671 2262.38 0.00418867 -0.0056983 4 
480 1 1 -0.00428964 0.00755566 0.000520799 0 0 0 -0.01228 0.045528 -0.0215585 -0.0324855 0.0190589 -0.0551313 -97.5456 -18.7373 -140.192 0.000521228 3403.35 0.00418867 -0.00320115 3 
220 1 1 -0.00339675 0.00701631 0.000521904 0 0 0 -0.0123885 0.000405255 -0.0155609 0.0554285 -0.0735556 -0.0310738 16.8034 11.3365 55.7682 0.000522225 3536.38 0.00418867 -0.00223359 5 
2336 1 1 -0.0021374 0.00717346 0.000523338 0 0 0 -0.0504786 -0.0358716 0.00887461 -0.0301898 -0.0615768 0.0225061 91.9882 -76.1875 -6.57206 0.00052366 3727.62 0.00418867 -0.00475714 5 
500 1 1 -0.00112319 0.00743572 0.000523458 0 0 0 -0.0378177 -0.0161977 0.00149441 0.00490998 -0.0162836 -0.00183346 30.2288 -68.1566 140.045 0.000524064 3781.49 0.00418867 -0.00376132 4 
926 1 1 -0.000256254 0.00676691 0.000523918 0 0 0 -0.0283912 0.00158931 -0.00737157 0.00296014 0.00291838 -0.00895025 -2.31547 -59.5766 0.629431 0.000524343 3818.79 0.00418867 -0.00409974 6 
2535 1 1 -0.00871997 -0.00694235 0.00145393 0 0 0 -0.102624 0.0830406 0.0424654 -0.136 -0.114171 0.0841436 -274.146 25.551 152.038 0.000508373 1689.37 0.00418867 -0.00410914 4 
801 1 1 -0.00752112 -0.00698704 0.00184503 0 0 0 -0.0244297 -0.0146583 0.101825 -0.00593629 -0.0905865 -0.010146 78.4875 38.7631 75.9584 0.000512032 2177.37 0.00418867 0.000368386 1 
231 1 1 -0.00650725 -0.00684485 0.00176457 0 0 0 0.00399908 -0.100319 0.0809849 0.00859535 0.0141623 0.0201016 -62.8181 4.03362 -143.549 0.000514343 2485.41 0.00418867 -0.00478118 1 
1598 1 1 -0.00557038 -0.00717898 0.00148034 0 0 0 0.00313425 0.0420147 -0.0115695 0.0589257 0.00820453 0.0721899 91.8296 35.55 -78.3259 0.000518404 3026.83 0.00418867 -0.00993663 3 
2230 1 1 -0.00455339 -0.00697793 0.0014134 0 0 0 -0.0352378 0.0799771 -0.0530542 -0.0363558 0.0613217 -0.00131692 78.1727 -105.889 -25.3897 0.000520506 3307.14 0.00418867 -0.00119965 4 
2343 1 1 -0.00336292 -0.00683187 0.00141082 0 0 0 -0.10676 -0.0225551 -0.0213446 0.0370049 0.0326847 -0.0377834 -94.9103 101.24 58.1603 0.000522403 3560.02 0.00418867 -0.00652552 5 
1099 1 1 -0.00233704 -0.00655675 0.00151267 0 0 0 -0.0387708 -0.0184678 0.0370308 0 0 -6.0887e-13 69.388 -9.13902 51.5807 0.000529162 4461.38 0.00418867 0 0 
603 1 1 -0.00151597 -0.00721874 0.00143134 0 0 0 -0.059963 -0.00332369 -0.0048739 0.0135911 -0.0119609 -0.00567808 -80.938 41.0814 -76.3581 0.000524005 3773.61 0.00418867 -0.00414059 4 
2152 1 1 -0.000411435 -0.00667791 0.0017112 0 0 0 -0.00800579 -0.00977181 0.0161585 0.00223587 -0.0096997 -0.00594506 -0.893838 23.0422 0.735064 0.000524186 3797.74 0.00418867 -0.00382027 6 
2469 1 1 -0.00949649 -0.00629505 0.00136401 0 0 0 -0.00555264 -0.0276874 0.0277711 0.00478877 0.0108529 -0.0276573 98.3529 -5.3892 15.5128 0.000503522 1042.56 0.00418867 -0.00476507 2 
1558 1 1 -0.00876134 -0.00569598 0.00171463 0 0 0 0.0475431 0.0364418 0.0524752 0.0059783 -0.00533769 -0.0185908 -429.946 -47.3643 139.651 0.000506871 1489.13 0.00418867 -0.00473788 4 
1743 1 1 -0.00799217 -0.00624213 0.00132646 0 0 0 0.0316042 0.0615577 0.0627079 -0.0427109 -0.023242 0.153467 146.14 -221.329 -332.388 0.000510482 1970.72 0.00418867 0.000411585 3 
2116 1 1 -0.00642615 -0.00589818 0.00136551 0 0 0 -0.101434 -0.09898 0.118129 -0.0652403 0.0280429 0.217162 260.414 -39.6296 108.536 0.000516013 2708.05 0.00418867 -0.00233359 3 
2658 1 1 -0.00530028 -0.00618204 0.00137427 0 0 0 0.0375571 0.000308726 -0.0568416 -0.0469433 -0.0511972 0.101235 -41.457 91.0717 -117.377 0.000518392 3025.32 0.00418867 0.000250201 4 
643 1 1 -0.00428646 -0.00597969 0.00127537 0 0 0 -0.00742808 0.0788088 -0.01159 -0.0766026 -0.167443 -0.0187954 9.08571 -79.9516 50.5929 0.000520676 3329.73 0.00418867 -0.0069755 5 
735 1 1 -0.00326177 -0.00579468 0.00133296 0 0 0 -0.101474 -7.37047e-06 0.0331794 0.194922 -0.0559448 0.0188958 109.57 -23.036 -120.412 0.00052263 3590.11 0.00418867 -0.0149964 5 
1581 1 1 -0.00225233 -0.00552019 0.00134434 0 0 0 -0.0633182 -0.0103965 0.0767653 -0.0569207 0.0583314 -0.0322332 -87.486 12.0511 19.4809 0.000524164 3793.81 0.00418867 -0.0662967 5 
2311 1 1 -0.00130128 -0.00618426 0.00146051 0 0 0 -0.0296252 -0.0195418 0.0201999 0.0150624 0.016466 0.0106345 -76.4392 -10.7565 23.2875 0.000524086 3784.52 0.00418867 -0.00344498 3 
1507 1 1 -0.000397547 -0.00564395 0.00154162 0 0 0 -0.000265682 -0.00928681 0.0131385 0.0897255 -0.00657323 0.012792 -14.8607 30.7378 -24.4438 0.000524169 3795.49 0.00418867 -0.00287235 5 
2266 1 1 -0.00949662 -0.00514654 0.00129254 0 0 0 0.0315413 0.0077478 -0.0307349 0.0676557 0.126504 0.0742399 94.3886 27.0652 -128.635 0.000503969 1102.17 0.00418867 -0.00801035 5 
956 1 1 -0.0087752 -0.0045946 0.00173581 0 0 0 0.0279412 -0.086324 0.125695 0.0463223 0.0338251 0.0602423 -83.8282 -191.071 348.954 0.000507166 1528.36 0.00418867 -0.0100006 4 
2149 1 1 -0.00800827 -0.00512876 0.00133503 0 0 0 0.037473 -0.0165549 -0.00707782 0.0344421 0.0827906 0.0280059 423.531 233.162 -265.027 0.000509928 1896.66 0.00418867 -0.00529095 4 
2593 1 1 -0.00700029 -0.00505347 0.00149514 0 0 0 0.0301997 -0.015937 0.0113422 -0.0490425 0.0848702 0.0389848 112.083 -209.695 358.083 0.00051377 2409.07 0.00418867 0.00066245 5 
1661 1 1 -0.00573376 -0.00519821 0.00167835 0 0 0 -0.0844163 -0.0294232 -0.0337288 0.0771345 0.00540987 0.0577165 97.9745 -15.192 92.0877 0.000517071 2848.79 0.00418867 -0.0225706 3 