ITEM: TIMESTEP
2034000
ITEM: NUMBER OF ATOMS
10890
ITEM: BOX BOUNDS mm pp mm
-0.01 0.01
-0.0075 0.0075
0 0.03
ITEM: ATOMS id type type x y z ix iy iz vx vy vz fx fy fz omegax omegay omegaz radius f_Temp[0] f_heatSource[0] f_heatFlux[0] c_coord[0] 
1360 1 1 -0.00950578 -0.0067252 0.000476492 0 0 0 -1.14008e-05 1.13887e-05 -1.12252e-05 1.61545e-06 -9.83179e-06 -4.04599e-06 -0.0211907 -0.0124881 0.0147616 0.000500339 618.14 0.00418867 -0.0041887 3 
1101 1 1 -0.00832351 -0.0073594 0.000457232 0 0 0 -1.84485e-05 1.47528e-05 -1.34327e-05 1.75097e-05 -2.20741e-05 -2.68639e-05 -0.0169263 -0.0386624 0.0217966 0.000500797 679.272 0.00418867 -0.00418875 4 
2577 1 1 -0.0075912 -0.00679234 0.000698138 0 0 0 -3.2349e-05 2.8373e-05 -2.49122e-05 2.83298e-05 -4.6621e-05 -4.99939e-05 -0.0145488 0.0240844 0.00101381 0.000500982 703.959 0.00418867 -0.00418877 5 
2282 1 1 -0.00603228 -0.00689 0.000457453 0 0 0 -2.76678e-05 8.50748e-06 -2.39565e-05 1.87197e-05 -2.04111e-05 -2.25432e-05 -0.00580017 -0.0497755 -0.0233215 0.000501351 753.099 0.00418867 -0.00418889 4 
1904 1 1 -0.004831 -0.00687362 0.000486444 0 0 0 -1.05238e-05 -7.44705e-06 -1.73785e-05 -6.86484e-06 -1.89706e-05 -1.65111e-05 0.0154374 -0.0216883 0.11206 0.000501566 781.789 0.00418867 -0.00418907 2 
792 1 1 -0.00406847 -0.00749324 0.000486205 0 1 0 6.87991e-06 1.17643e-05 -3.21531e-05 -1.76952e-05 -3.7625e-05 2.24679e-06 0.00389551 0.00667519 -0.0649602 0.000501666 795.08 0.00418867 -0.00418921 4 
2537 1 1 -0.00366138 -0.00664107 0.000764501 0 0 0 6.78926e-06 3.49695e-06 -7.49674e-05 -4.47365e-05 -2.98895e-05 -9.37184e-06 -0.0858912 -0.0360673 0.0450615 0.000501747 805.994 0.00418867 -0.00418923 4 
1266 1 1 -0.00280585 -0.00701159 0.000467333 0 0 0 1.30669e-05 7.9114e-06 -3.31455e-05 -3.0972e-05 -1.40147e-05 -1.46958e-06 0.0232486 -0.0157679 -0.0203089 0.000501821 815.857 0.00418867 -0.00418945 4 
1738 1 1 -0.00183485 -0.00709293 0.000479457 0 0 0 1.79842e-05 1.42805e-05 -4.61785e-05 -2.39082e-05 -4.12526e-06 8.49186e-06 0.00252218 0.045804 0.034992 0.000501897 825.936 0.00418867 -0.00418994 4 
1115 1 1 -8.77446e-05 -0.00740963 0.000476135 0 0 0 -1.53828e-05 2.39127e-05 -5.00793e-05 4.40167e-05 -1.1793e-05 7.01827e-05 -0.0287363 -0.000461921 -0.00425941 0.000501957 833.872 0.00418867 -0.00419113 5 
1338 1 1 -0.000467931 -0.00650932 0.000486909 0 0 0 -1.44373e-05 -1.24121e-05 -4.56253e-05 2.56315e-05 4.60617e-05 4.15688e-05 0.0367418 -0.0345822 0.0213021 0.000501956 833.821 0.00418867 -0.00419028 3 
599 1 1 -0.000962284 -0.0072545 0.000880402 0 0 0 9.32925e-06 3.10565e-05 -8.95594e-05 -3.8959e-05 -1.65909e-05 4.66624e-05 -0.0346619 -0.0143106 -0.00547994 0.000501937 831.265 0.00418867 -0.00419081 6 
1295 1 1 -0.00952634 -0.00570133 0.000472844 0 0 0 -7.62942e-06 7.0248e-06 -6.37524e-06 1.94741e-06 -1.42178e-05 -4.17417e-06 -0.0164419 -0.00551155 0.00901081 0.000500294 612.184 0.00418867 -0.00418868 2 
620 1 1 -0.00857046 -0.0063951 0.000486464 0 0 0 -1.29598e-05 1.01972e-05 -1.59709e-05 1.58354e-05 -2.2344e-05 -1.44837e-05 -0.0100915 -0.014151 -0.0264289 0.000500689 664.818 0.00418867 -0.00418872 4 
1012 1 1 -0.00765178 -0.00585762 0.000475992 0 0 0 -1.73645e-05 1.72726e-05 -1.80448e-05 1.64074e-05 -3.23181e-05 -2.14353e-05 0.000203045 -0.0141986 -0.0173077 0.000500975 703.018 0.00418867 -0.00418875 4 
1283 1 1 -0.0068057 -0.00596999 0.000942971 0 0 0 -2.63063e-05 2.71412e-05 -4.34542e-05 1.88793e-05 -5.44235e-05 -3.5292e-05 -0.0146682 0.0203056 -0.00195781 0.000501172 729.274 0.00418867 -0.00418879 7 
2369 1 1 -0.00597755 -0.00590193 0.000457701 0 0 0 -1.46686e-05 1.20113e-05 -3.01031e-05 1.14987e-05 -2.83611e-05 -1.34814e-05 -0.00756099 -0.0169012 -0.0083753 0.000501355 753.677 0.00418867 -0.00418883 6 
574 1 1 -0.0050008 -0.00571442 0.000485866 0 0 0 -2.81924e-05 2.71867e-05 -1.38191e-05 7.30908e-05 -0.00010281 -2.35386e-05 -0.0558866 -0.0603155 0.0186991 0.000501499 772.922 0.00418867 -0.00418882 3 
219 1 1 -0.0027057 -0.00603692 0.00046527 0 0 0 4.76072e-06 2.17543e-05 -3.96471e-05 -1.86135e-05 -6.48707e-06 -3.89168e-07 -0.0441411 0.0263148 0.0380347 0.000501841 818.405 0.00418867 -0.00418911 5 
1971 1 1 -0.00151888 -0.00617087 0.000459215 0 0 0 -1.13164e-05 2.7473e-06 -4.47768e-05 7.78078e-06 2.37658e-05 1.75968e-05 0.00370918 -0.00329355 -0.00501186 0.000501916 828.467 0.00418867 -0.0041894 5 
1180 1 1 -0.000751453 -0.00558546 0.000478769 0 0 0 -2.72212e-05 -8.80683e-06 -4.77461e-05 3.56542e-05 3.90198e-05 2.80173e-05 -0.0181575 -0.00342291 0.00331761 0.000501945 832.324 0.00418867 -0.00418882 6 
1145 1 1 -0.00864774 -0.00527858 0.000475714 0 0 0 -1.05218e-05 7.62826e-06 -1.49769e-05 1.22581e-05 -2.66205e-05 -9.00555e-06 0.00271087 -0.00355515 -0.00926005 0.000500653 660.053 0.00418867 -0.00418869 4 
218 1 1 -0.00773488 -0.00489956 0.000454522 0 0 0 -1.03108e-05 1.32986e-05 -1.3229e-05 2.42172e-06 -2.74132e-05 -1.07455e-05 -0.0151948 -0.0213292 0.00743543 0.000500885 691.011 0.00418867 -0.00418871 5 
2561 1 1 -0.0058325 -0.00493519 0.000488079 0 0 0 -1.4605e-05 1.8836e-05 -2.32228e-05 8.33926e-06 -3.55636e-05 -7.85468e-06 -0.005519 -0.0133883 0.0011058 0.000501373 756.014 0.00418867 -0.00418877 5 
1998 1 1 -0.00406032 -0.00523907 0.000451064 0 0 0 -2.23868e-05 5.94614e-06 -3.38994e-05 4.56866e-06 -1.36114e-05 -1.86882e-05 0.0214196 -0.0212427 -0.0285733 0.000501686 797.837 0.00418867 -0.00418885 5 
1657 1 1 -0.00489145 -0.00472261 0.000484728 0 0 0 -1.65308e-05 1.94062e-05 -2.43371e-05 1.1074e-05 -3.01339e-05 -6.36469e-06 -0.0274538 -0.00849571 -0.00898083 0.000501564 781.559 0.00418867 -0.00418876 5 
323 1 1 -0.00309233 -0.00513436 0.000471742 0 0 0 -2.42039e-05 1.143e-05 -3.68324e-05 1.71504e-06 -7.19097e-06 -1.2042e-05 -0.0279533 -0.0120983 0.0354689 0.000501786 811.149 0.00418867 -0.00418886 4 
615 1 1 -0.00203298 -0.00531994 0.000487272 0 0 0 -2.67739e-05 1.78399e-05 -5.80755e-05 6.57621e-06 2.83797e-06 1.15637e-05 -0.0443352 -0.0471114 0.00353673 0.000501895 825.646 0.00418867 -0.00418881 5 
1959 1 1 -0.00123695 -0.00473959 0.000466191 0 0 0 -3.31074e-05 1.291e-05 -5.6971e-05 2.75879e-05 1.52965e-06 2.46083e-05 -0.0416154 -0.0416129 -0.00624985 0.000501928 830.098 0.00418867 -0.00418835 5 
2725 1 1 -0.00951045 -0.00448039 0.000472071 0 0 0 -3.64386e-06 5.9329e-06 -2.97453e-06 1.11285e-06 -1.36144e-05 -2.32735e-06 -0.0144854 -0.00400816 0.00550436 0.000500323 616.059 0.00418867 -0.00418854 4 
413 1 1 -0.00853593 -0.00431613 0.000474964 0 0 0 -5.04676e-06 5.73525e-06 -6.01289e-06 7.43912e-06 -2.77725e-05 -7.0767e-08 0.00437609 0.00152137 -0.00129558 0.000500642 658.625 0.00418867 -0.00418866 4 
1175 1 1 -0.00750727 -0.0039521 0.000475472 0 0 0 -1.04063e-05 2.16115e-05 -1.89931e-05 4.61719e-06 -3.58268e-05 -2.10282e-06 -0.0251655 -0.00474919 0.00405845 0.000501013 708.092 0.00418867 -0.00418871 3 
1378 1 1 -0.00668173 -0.00447088 0.00044543 0 0 0 -9.82372e-06 2.39824e-05 -2.2058e-05 4.43255e-06 -4.39642e-05 -1.38108e-05 -0.0326191 -0.0008594 -0.00632735 0.000501218 735.385 0.00418867 -0.00418873 5 
1387 1 1 -0.00663453 -0.00364581 0.000923275 0 0 0 -1.85707e-05 4.42851e-05 -4.78112e-05 4.1916e-06 -7.55479e-05 -1.80556e-05 -0.0146689 -0.00137751 0.015488 0.000501253 740.093 0.00418867 -0.0041887 7 
1741 1 1 -0.00579367 -0.00376573 0.00045827 0 0 0 -1.42205e-05 3.39538e-05 -3.56219e-05 4.18206e-06 -4.80615e-05 -1.8341e-05 -0.0617478 -0.00475719 -0.00441438 0.000501413 761.404 0.00418867 -0.0041887 3 
2011 1 1 -0.00472258 -0.00354162 0.000479598 0 0 0 -1.26841e-05 2.26235e-05 -2.32623e-05 3.72107e-07 -3.30396e-05 -2.02999e-05 0.0181271 -0.0261562 -0.032049 0.000501611 787.865 0.00418867 -0.00418867 4 
1823 1 1 -0.00404568 -0.00425041 0.000462568 0 0 0 -2.11065e-05 1.96054e-05 -3.873e-05 3.60502e-06 -2.41588e-05 -1.60547e-05 -0.0326415 0.00333917 0.0265318 0.000501683 797.395 0.00418867 -0.0041887 6 
1512 1 1 -0.00333133 -0.00362664 0.000683524 0 0 0 -2.10587e-05 2.7594e-05 -4.20354e-05 -3.98588e-06 -3.73909e-05 -1.88515e-05 0.078219 -0.00329752 -0.0446928 0.000501755 807.064 0.00418867 -0.00418852 5 
2717 1 1 -0.00247825 -0.00405548 0.000470164 0 0 0 -3.23031e-05 1.59723e-05 -4.45175e-05 1.51779e-05 -1.59655e-05 -4.61947e-06 -0.0111426 -0.043377 -0.00275971 0.000501835 817.685 0.00418867 -0.00418845 4 
2319 1 1 -0.000212652 -0.00428668 0.000456439 0 0 0 -2.88678e-05 2.16352e-05 -5.97445e-05 3.49229e-05 -2.08856e-05 3.75796e-05 -0.0320239 -0.0408925 -0.00493314 0.000501946 832.45 0.00418867 -0.00418773 4 
2212 1 1 -0.00949905 -0.0034796 0.000500969 0 0 0 -1.96643e-06 -4.57036e-06 -1.2989e-05 4.44514e-06 -1.77647e-05 -8.14906e-08 -0.0148521 0.00358621 -0.00824371 0.000500959 700.862 0.00418867 -0.00418905 2 
616 1 1 -0.00858846 -0.00306295 0.000476757 0 0 0 -1.71988e-05 6.57673e-06 -1.83765e-05 1.18422e-05 -2.94326e-05 -1.0037e-05 0.000320794 -0.023007 0.0548895 0.000500722 669.25 0.00418867 -0.00418864 4 
2278 1 1 -0.0068565 -0.00275428 0.000475386 0 0 0 -9.67065e-06 2.6949e-05 -1.95865e-05 5.37307e-06 -4.07414e-05 -1.86088e-05 -0.0350781 -0.00495851 0.0168475 0.000501178 730.092 0.00418867 -0.00418868 4 
1466 1 1 -0.0058734 -0.00265774 0.000472945 0 0 0 -1.3681e-05 3.56154e-05 -3.27477e-05 3.47358e-06 -5.59371e-05 -1.79928e-05 -0.0657942 -0.01465 -0.0130758 0.000501389 758.147 0.00418867 -0.00418866 5 
2724 1 1 -0.00489479 -0.0025783 0.000461233 0 0 0 -1.03098e-05 2.8538e-05 -3.18642e-05 -6.38909e-06 -5.02909e-05 -1.29316e-05 -0.0588272 -0.00689795 0.0101952 0.000501552 779.967 0.00418867 -0.00418865 5 
1241 1 1 -0.00396679 -0.00289338 0.000478083 0 0 0 -5.74276e-06 5.01649e-05 -3.45677e-05 -1.05214e-05 -5.40763e-05 -1.04361e-05 -0.109163 0.0300298 0.0391383 0.000501685 797.625 0.00418867 -0.00418859 4 
403 1 1 -0.00256716 -0.00306118 0.000492633 0 0 0 -1.47974e-05 2.60096e-05 -1.89429e-05 -3.95843e-06 -3.9938e-05 -2.0296e-05 0.00846523 0.0196059 0.0096243 0.000501833 817.399 0.00418867 -0.00418827 4 
536 1 1 -0.00160524 -0.00301808 0.000444088 0 0 0 -1.23612e-05 4.57341e-05 -5.29687e-05 1.58749e-06 -5.98688e-05 -2.43491e-06 -0.0697087 0.0144725 0.0180894 0.000501905 826.985 0.00418867 -0.00418792 5 
1281 1 1 -0.000661003 -0.00327196 0.000482813 0 0 0 -1.78736e-05 3.53466e-05 -5.02305e-05 2.01666e-05 -4.0212e-05 7.35814e-06 0.0141102 -0.0224759 -0.0400953 0.00050194 831.688 0.00418867 -0.00418782 4 
2621 1 1 -0.0095262 -0.00157989 0.000474649 0 0 0 -1.12562e-06 9.68737e-06 -9.41914e-06 2.84716e-06 -1.96539e-05 -3.47091e-06 -0.0103236 0.0105978 0.0124229 0.000500359 620.918 0.00418867 -0.00418867 3 
1699 1 1 -0.00908997 -0.00233167 0.000884343 0 0 0 -1.90111e-05 1.13765e-05 -2.27863e-05 1.30072e-05 -3.82002e-05 -1.07728e-05 -0.00672758 0.01721 -0.0539743 0.000500555 646.935 0.00418867 -0.00418866 4 
2259 1 1 -0.00792967 -0.00153484 0.000858362 0 0 0 -1.93846e-05 3.77858e-05 -2.90001e-05 1.50339e-05 -5.35363e-05 -1.81767e-05 0.00447475 0.0133612 0.00700215 0.00050087 688.966 0.00418867 -0.00418868 6 
1246 1 1 -0.00779627 -0.00241967 0.00046104 0 0 0 -1.54882e-05 2.49593e-05 -2.30703e-05 1.38349e-05 -3.69973e-05 -1.04847e-05 -0.0305508 -0.0259792 -0.0106795 0.000500969 702.257 0.00418867 -0.00418868 5 
1853 1 1 -0.00703737 -0.00177581 0.00049737 0 0 0 -1.60461e-05 3.17385e-05 -3.17526e-05 1.88399e-05 -4.0181e-05 4.9213e-06 -0.0325814 -0.000123344 0.00880899 0.000501109 720.91 0.00418867 -0.00418868 5 
112 1 1 -0.00606716 -0.00157111 0.000479513 0 0 0 -2.11419e-05 4.47225e-05 -2.33256e-05 2.38944e-05 -5.50541e-05 -2.41074e-05 -0.0583642 -0.0646572 0.0127942 0.000501285 744.288 0.00418867 -0.0041887 5 
2470 1 1 -0.00382325 -0.00163823 0.000435676 0 0 0 -8.02829e-06 5.63569e-05 -3.25248e-05 -2.52028e-05 -8.29787e-05 -2.64238e-05 -0.115628 -0.000238384 0.0622431 0.000501732 803.89 0.00418867 -0.0041883 3 
1863 1 1 -0.00307936 -0.00223529 0.000470106 0 0 0 -3.63086e-06 5.55956e-05 -2.12943e-05 -2.10108e-05 -6.68873e-05 -1.24063e-05 -0.0586039 0.0220082 -0.0536381 0.000501803 813.337 0.00418867 -0.00418845 5 
1770 1 1 -0.00210738 -0.00216497 0.000486671 0 0 0 -1.24043e-05 5.67414e-05 -5.59044e-05 -1.69158e-05 -8.51291e-05 1.30342e-05 -0.0742484 0.0403978 0.0204131 0.000501881 823.777 0.00418867 -0.00418796 4 
2727 1 1 -0.00125429 -0.00227079 0.000948948 0 0 0 -2.43497e-05 9.64373e-05 -9.36107e-05 -1.04241e-05 -0.000138003 1.2001e-05 -0.00484104 -0.0153198 0.00931859 0.000501921 829.143 0.00418867 -0.00418725 7 
2195 1 1 -0.000803059 -0.00158867 0.000447169 0 0 0 -7.87989e-06 5.8276e-05 -6.67924e-05 0.000156659 -0.000483971 -7.32575e-06 -0.0683536 -0.0379964 -0.040845 0.00050194 831.675 0.00418867 -0.00418359 5 
6561 1 1 -0.000263422 -0.00238923 0.000486974 0 0 0 -8.56397e-06 4.39928e-05 -4.00701e-05 2.01635e-05 -7.16007e-05 9.56621e-07 -0.0367677 0.0255104 0.0328603 0.00050195 833.023 0.00418867 -0.00418753 4 
2166 1 1 -0.00953259 -0.00059785 0.000547186 0 0 0 -7.12037e-06 8.91277e-06 -9.59633e-06 5.67172e-06 -1.72562e-05 1.1809e-06 0.0181843 0.0230807 0.0126843 0.000500346 619.196 0.00418867 -0.00418867 4 
2478 1 1 -0.00868722 -0.00107945 0.000443737 0 0 0 -9.97314e-06 1.76692e-05 -1.58791e-05 7.63994e-06 -3.00161e-05 -1.20079e-05 -0.0277816 -0.0150947 0.00668405 0.000500618 655.393 0.00418867 -0.00418868 6 
2421 1 1 -0.00786438 -0.000549018 0.000454157 0 0 0 -1.3008e-05 2.28815e-05 -1.53782e-05 4.49052e-06 -2.61639e-05 -1.52807e-05 -0.0346377 -0.0206288 0.00909326 0.000500764 674.887 0.00418867 -0.00418868 4 
2518 1 1 -0.00672934 -0.000829468 0.000517614 0 0 0 -1.17287e-05 3.91642e-05 -2.27039e-05 2.45361e-05 -4.35124e-05 -1.26588e-05 0.0678501 0.0489944 -0.0196955 0.000501176 729.808 0.00418867 -0.00418868 3 
143 1 1 -0.00548249 -0.000786244 0.000476964 0 0 0 -2.09905e-05 5.80396e-05 -3.89851e-05 9.32883e-06 -6.31542e-05 -1.80512e-05 -0.0840286 -0.022408 -0.00212749 0.000501432 763.96 0.00418867 -0.00418853 5 
74 1 1 -0.00451211 -0.000639392 0.000466623 0 0 0 -1.83965e-05 4.83019e-05 -3.14244e-05 -8.91267e-05 -0.000244843 -3.84678e-05 -0.0393966 -0.0291924 -0.00726754 0.000501565 781.722 0.00418867 -0.00418604 5 
115 1 1 -0.00223148 -0.00120306 0.000681236 0 0 0 -1.76476e-05 9.76455e-05 -7.15606e-05 -8.2929e-05 -0.000345453 -3.96093e-05 0.0424364 0.0238628 0.00933571 0.00050187 822.272 0.00418867 -0.00418368 5 
197 1 1 -0.00131499 -0.000866671 0.000813392 0 0 0 2.27539e-05 7.76384e-05 -7.95716e-05 0.000217785 -0.000135234 -0.000202149 -0.00337348 0.0119982 -0.068952 0.000501922 829.324 0.00418867 -0.00419953 5 
5605 1 1 -5.84549e-05 -0.000936867 0.000490855 0 0 0 1.08494e-05 7.33996e-05 -6.84287e-05 0.000107508 -0.000159326 3.39964e-05 -0.0854458 0.023358 0.0112348 0.00050196 834.298 0.00418867 -0.00418655 4 
2321 1 1 -0.009534 0.000449616 0.00047599 0 0 0 -6.36234e-06 4.80303e-06 -6.82874e-06 5.59339e-06 -1.11876e-05 -4.25868e-06 -5.88575e-05 0.00146818 0.00971514 0.000500338 618.092 0.00418867 -0.00418868 3 
754 1 1 -0.00871055 -8.64711e-05 0.000527301 0 0 0 -1.18863e-05 1.70102e-05 -2.14922e-05 8.90498e-06 -2.48386e-05 -7.64565e-06 0.00396183 0.0206522 0.00482945 0.000500592 651.921 0.00418867 -0.00418868 7 
1880 1 1 -0.00785999 0.000426551 0.000459447 0 0 0 -1.66183e-05 1.89124e-05 -2.12829e-05 1.00143e-05 -2.23004e-05 -1.06821e-05 -0.00702444 -0.0145283 -0.00215062 0.000500834 684.246 0.00418867 -0.00418869 7 
783 1 1 -0.00692898 0.000140671 0.000473604 0 0 0 -1.9325e-05 3.51006e-05 -1.84344e-05 1.57594e-05 -3.9048e-05 -2.16715e-05 -0.0606381 -0.0134842 0.0401125 0.000501089 718.146 0.00418867 -0.00418871 4 
233 1 1 -0.00606316 -9.26009e-05 0.000830232 0 0 0 -1.8521e-05 7.57866e-05 -5.25159e-05 1.58241e-05 -7.54397e-05 -3.3107e-05 -0.0109588 0.0574151 0.0102408 0.000501328 750.012 0.00418867 -0.00418859 5 
129 1 1 -0.00510294 6.94898e-05 0.000799478 0 0 0 -2.02057e-05 6.77188e-05 -5.57453e-05 -0.000253661 -0.000199285 3.60027e-05 0.0389915 -0.0353732 -0.0260525 0.000501507 773.928 0.00418867 -0.00418579 8 
2061 1 1 -0.00421839 0.000298373 0.000471554 0 0 0 -2.66525e-05 3.82783e-05 -3.13309e-05 -0.000349507 -5.81947e-05 -0.000187579 -0.0509146 -0.00625457 0.00737477 0.000501635 791.037 0.00418867 -0.00418937 5 
1496 1 1 -0.00284807 -0.00044974 0.000483476 0 0 0 -5.58454e-06 6.49219e-05 -4.7206e-05 -2.21681e-05 -8.82759e-06 0.000254185 -0.0658167 -0.00874648 -0.00204112 0.000501814 814.835 0.00418867 -0.00419098 4 
2327 1 1 -0.00237657 0.000445126 0.000461654 0 0 0 1.04523e-05 4.86782e-05 -5.78455e-05 -0.00662482 0.00824445 0.0047852 -0.091123 0.0140501 -0.0408169 0.00050185 819.666 0.00418867 -0.0065559 5 
109 1 1 -0.00152945 -1.90036e-05 0.000434132 0 0 0 4.20439e-05 3.93558e-05 -5.98109e-05 -0.0207279 0.012968 -0.000442083 -0.0821581 0.0613883 0.0603529 0.000501912 827.948 0.00418867 -0.00461596 4 
1095 1 1 -0.00056634 -0.000110473 0.000675564 0 0 0 3.40063e-05 9.75777e-05 -7.72981e-05 0.000457542 -0.000322615 -2.66396e-06 0.0429433 -0.0353673 -0.0147486 0.00050195 833.012 0.00418867 -0.00418584 5 
2262 1 1 -0.00868073 0.000895221 0.000486881 0 0 0 -1.24012e-05 1.33433e-05 -1.54101e-05 7.07352e-06 -1.69733e-05 -9.54217e-06 0.00674843 0.0111973 0.00493617 0.000500611 654.413 0.00418867 -0.00418869 5 
1456 1 1 -0.00754905 0.00135677 0.000478042 0 0 0 -7.45673e-06 2.31498e-05 -1.7929e-05 -5.54539e-07 -2.62215e-05 -1.47579e-05 -0.0358988 -0.0156442 -0.00192271 0.0005009 693.026 0.00418867 -0.00418872 4 
2309 1 1 -0.00615245 0.00103225 0.000958879 0 0 0 -1.36483e-05 7.19355e-05 -3.52029e-05 2.96173e-05 -7.07351e-05 -3.63632e-05 0.0257345 0.0369066 -0.0245834 0.000501375 756.364 0.00418867 -0.00418882 5 
386 1 1 -0.00529394 0.000962426 0.000468854 0 0 0 -3.91667e-06 4.69076e-05 -3.5025e-05 4.97422e-06 -4.56581e-05 -3.0114e-05 -0.063135 -0.00126927 -0.00122624 0.000501499 772.832 0.00418867 -0.00418844 5 
2516 1 1 -0.00434521 0.00128303 0.000486763 0 0 0 -1.8341e-06 4.13824e-05 -3.74946e-05 -0.000333357 9.04861e-05 -1.92398e-05 -0.0357733 0.00425299 0.0140212 0.000501625 789.716 0.00418867 -0.00418422 6 
2382 1 1 -0.00331861 0.000682617 0.000479481 0 0 0 -4.84858e-05 7.04789e-05 -4.51996e-05 0.0222039 -0.00514818 -0.0002492 -0.0687573 -0.0238919 0.0350472 0.000501755 806.968 0.00418867 -0.00459735 5 
2566 1 1 -0.0024581 0.00143283 0.000473743 0 0 0 1.20681e-05 9.86878e-05 -5.85923e-05 0.00109941 -0.0138438 0.000132312 -0.109016 0.0548931 0.0756415 0.000501849 819.495 0.00418867 -0.00444123 3 
178 1 1 -0.00152915 0.00100333 0.000516117 0 0 0 -0.00111233 -0.0011662 0.0188091 0 0 -5.59173e-13 25.0197 -27.4611 -0.603372 0.000514355 2487.07 0.00418867 0 0 
2022 1 1 -0.00024557 0.000803818 0.000458536 0 0 0 2.47115e-05 7.72489e-05 -6.58978e-05 6.58155e-05 -3.7988e-05 -3.46867e-05 -0.120156 0.0260497 -0.00194347 0.000501954 833.593 0.00418867 -0.0041864 6 
628 1 1 -0.00910256 0.00173743 0.000442606 0 0 0 -9.62497e-06 1.24012e-05 -1.27978e-05 -7.24401e-06 -1.76514e-05 -1.40279e-05 -0.0174468 -0.0190403 -0.0092711 0.000500536 644.518 0.00418867 -0.00418869 5 
786 1 1 -0.00828801 0.00179354 0.000950025 0 0 0 -7.05751e-06 3.15531e-05 -2.67351e-05 -5.88552e-06 -3.28257e-05 -2.67674e-05 -0.0303276 0.0398435 0.0166947 0.000500737 671.202 0.00418867 -0.00418871 6 
1700 1 1 -0.00759401 0.0024443 0.00049855 0 0 0 -8.37059e-06 2.46602e-05 -1.4751e-05 1.12634e-05 -3.62426e-05 -1.82887e-05 -0.0350326 0.00604314 0.021418 0.000500994 705.495 0.00418867 -0.00418875 3 
449 1 1 -0.00659498 0.00170129 0.000449001 0 0 0 -6.35969e-06 3.89553e-05 -1.43429e-05 8.18547e-06 -4.158e-05 -2.2687e-05 -0.0548273 -0.0205955 0.01202 0.000501284 744.207 0.00418867 -0.00418878 3 
986 1 1 -0.00587981 0.00235421 0.000462901 0 0 0 -1.76913e-06 3.70714e-05 -2.98547e-05 5.30119e-06 -3.26728e-05 -1.28271e-05 -0.0511434 0.0152079 0.00623987 0.000501386 757.778 0.00418867 -0.00418884 5 
1906 1 1 -0.00492732 0.00209307 0.000478733 0 0 0 2.51475e-06 3.61643e-05 -4.11337e-05 -9.50615e-07 -4.18547e-05 -5.64142e-06 -0.0398237 0.000123414 -0.0213326 0.00050156 780.976 0.00418867 -0.00418869 6 
1002 1 1 -0.00401567 0.00244386 0.000478895 0 0 0 3.87572e-06 3.41334e-05 -5.51795e-05 -0.000135203 0.000216182 2.05798e-05 -0.0421521 0.0237391 0.0223808 0.000501697 799.282 0.00418867 -0.00418596 5 
2667 1 1 -0.00342886 0.00165648 0.000470074 0 0 0 -2.62155e-05 6.37522e-05 -4.54996e-05 -4.2756e-05 -2.62244e-05 -3.05763e-05 -0.0280399 -0.0309058 -0.0479533 0.000501744 805.492 0.00418867 -0.00419434 6 
513 1 1 -0.00146122 0.00212189 0.000475989 0 0 0 2.91686e-05 8.1184e-05 -5.03824e-05 -5.83154e-06 -7.98173e-05 -1.37901e-05 -0.128005 0.08479 0.0368877 0.000501918 828.72 0.00418867 -0.00418846 4 
654 1 1 -0.000741577 0.00156595 0.000840062 0 0 0 4.32273e-05 0.000126027 -0.000109773 3.56543e-05 -9.36766e-05 -2.46068e-05 -0.00650433 0.0312616 -0.0229058 0.000501946 832.429 0.00418867 -0.00418694 6 
1500 1 1 -0.000182508 0.00246776 0.000453157 0 0 0 4.26715e-05 7.68594e-05 -5.64608e-05 -1.59265e-05 -6.92337e-05 4.84092e-05 -0.15789 0.0874942 0.0289401 0.000501953 833.347 0.00418867 -0.00418907 4 
1161 1 1 -0.00915272 0.00338895 0.000461527 0 0 0 -6.09541e-06 1.13574e-05 -1.52329e-05 -4.09727e-06 -1.21984e-05 -1.95553e-05 -0.0135086 -0.00545693 -0.00799528 0.000500487 637.876 0.00418867 -0.00418871 6 
1350 1 1 -0.00953045 0.00254171 0.000753264 0 0 0 -4.93768e-06 1.02499e-05 -1.18404e-05 -2.60575e-06 -1.1186e-05 -1.60099e-05 0.0130517 0.0217956 0.0143076 0.000500389 624.807 0.00418867 -0.00418869 4 
2530 1 1 -0.0085805 0.00258165 0.000464062 0 0 0 -7.85099e-06 1.23078e-05 -1.23265e-05 -9.49665e-07 -1.67765e-05 -1.99251e-05 0.000532698 -0.0119009 -0.00680286 0.000500649 659.497 0.00418867 -0.00418871 7 
2563 1 1 -0.00815418 0.00346703 0.000480804 0 0 0 -4.50569e-06 1.88991e-05 -1.56765e-05 -9.4518e-07 -1.49601e-05 -2.33346e-05 -0.0347423 0.00357303 0.00916756 0.00050081 681.031 0.00418867 -0.00418874 4 
384 1 1 -0.00718781 0.00342351 0.000469132 0 0 0 -7.21479e-06 2.22264e-05 -2.1146e-05 -5.04692e-09 -3.49966e-05 -1.77518e-05 -0.0337754 0.00246434 0.00763483 0.00050107 715.601 0.00418867 -0.00418878 3 
990 1 1 -0.00670356 0.00268868 0.000877313 0 0 0 -6.1261e-06 4.11881e-05 -3.21417e-05 8.06136e-06 -5.53466e-05 -3.49221e-05 0.0098394 0.00859996 -0.00543159 0.000501206 733.831 0.00418867 -0.00418879 6 
1282 1 1 -0.00604496 0.00332205 0.000493055 0 0 0 -2.43601e-06 3.42224e-05 -4.4197e-05 4.83861e-06 -2.99259e-05 -1.58462e-05 -0.0323583 0.0192491 0.000296051 0.000501343 752.128 0.00418867 -0.00418884 4 
2218 1 1 -0.00504707 0.00314274 0.000478512 0 0 0 -2.2997e-06 3.06474e-05 -4.09468e-05 1.55811e-05 -3.73104e-05 -9.62784e-06 -0.0212486 0.0174453 -0.0217805 0.00050157 782.391 0.00418867 -0.00418895 4 
1533 1 1 -0.0040987 0.00342367 0.000485601 0 0 0 -1.23161e-06 2.12051e-05 -4.62896e-05 9.22839e-06 -2.24049e-05 5.88181e-06 0.0279892 -0.0343937 -0.0078713 0.000501669 795.479 0.00418867 -0.0041889 5 
2203 1 1 -0.00303502 0.00256144 0.000539898 0 0 0 1.45125e-05 5.05009e-05 -6.80069e-05 4.39285e-05 0.000136979 2.81437e-05 -0.0912897 -0.0374737 -0.00723261 0.000501793 812.049 0.00418867 -0.00418632 4 
426 1 1 -0.00210459 0.00287369 0.00045542 0 0 0 1.15272e-05 5.5385e-05 -4.89272e-05 8.56833e-06 -3.11577e-05 -5.90156e-06 -0.056895 0.0221807 0.0360877 0.000501871 822.448 0.00418867 -0.00418841 5 
1165 1 1 -0.000925841 0.00278715 0.000983551 0 0 0 3.75274e-05 0.000110884 -0.000102405 2.43712e-05 -0.000109823 6.70777e-05 -0.00830853 -0.0711727 -0.0169149 0.000501928 830.035 0.00418867 -0.00418856 7 
1397 1 1 -0.00953914 0.00429065 0.000475767 0 0 0 -2.4847e-06 9.1542e-06 -1.34618e-05 5.34952e-07 -9.68399e-06 -1.18694e-05 -0.00724841 0.0210786 0.0177214 0.000500391 625.076 0.00418867 -0.0041887 3 
358 1 1 -0.00870712 0.0041068 0.000948759 0 0 0 -1.37295e-05 2.2568e-05 -2.83481e-05 -3.08264e-06 -2.56713e-05 -3.09631e-05 -0.00781349 -0.0224932 0.00274568 0.000500616 655.166 0.00418867 -0.00418873 7 
1403 1 1 -0.00631435 0.00426189 0.000572015 0 0 0 -2.20556e-06 3.86358e-05 -5.00791e-05 7.08159e-06 -3.5833e-05 -5.72249e-05 0.0189586 -0.0286435 -0.00836519 0.000501296 745.755 0.00418867 -0.00418888 6 
263 1 1 -0.00536258 0.00407853 0.000478431 0 0 0 1.6529e-06 3.28312e-05 -3.65147e-05 7.89283e-06 -3.24718e-05 -1.14087e-05 -0.029392 -0.010402 -0.00184742 0.000501477 769.929 0.00418867 -0.00418895 6 
136 1 1 -0.00443269 0.00435109 0.000457932 0 0 0 1.04626e-06 2.44083e-05 -3.69109e-05 3.60501e-06 -2.96087e-05 -5.3845e-06 -0.0404442 0.0107402 -0.00609366 0.000501618 788.69 0.00418867 -0.00418908 5 
963 1 1 -0.00316129 0.0036994 0.00042621 0 0 0 1.45491e-05 3.48705e-05 -5.00222e-05 6.76136e-06 -3.94254e-05 1.59279e-05 -0.0360992 0.0371926 0.0213542 0.000501776 809.771 0.00418867 -0.00418917 5 
632 1 1 -0.00235127 0.00426858 0.000485803 0 0 0 9.62079e-06 3.80201e-05 -5.13265e-05 -1.63706e-06 -4.66672e-05 3.07099e-05 0.0379334 0.0179418 0.00788174 0.000501844 818.844 0.00418867 -0.00418928 4 
1018 1 1 -0.00155091 0.00369186 0.00044787 0 0 0 8.55795e-06 5.46715e-05 -6.23547e-05 7.88715e-06 -6.29069e-05 4.76931e-05 -0.0906495 0.00372826 -0.0343447 0.0005019 826.352 0.00418867 -0.00418928 5 
885 1 1 -0.000588186 0.00353119 0.000459714 0 0 0 8.47176e-06 5.45314e-05 -5.9037e-05 2.01969e-06 -6.28473e-05 4.8419e-05 -0.045831 0.031172 0.0416867 0.000501935 830.942 0.00418867 -0.00418926 4 
1421 1 1 -0.00087571 0.00447152 0.000454259 0 0 0 1.97807e-05 4.61383e-05 -6.38773e-05 1.11623e-05 -5.00109e-05 5.92729e-05 -0.0506373 0.0314887 -0.0557932 0.000501933 830.715 0.00418867 -0.00418945 5 
758 1 1 -0.00805387 0.00459711 0.000432547 0 0 0 -9.3836e-06 1.80745e-05 -2.25182e-05 5.94694e-07 -1.63055e-05 -3.23529e-05 -0.0327691 -0.0085241 0.00503962 0.000500825 682.939 0.00418867 -0.00418876 5 
508 1 1 -0.00891353 0.00499838 0.000610981 0 0 0 -1.1343e-05 1.86644e-05 -2.51307e-05 2.83974e-06 -2.3806e-05 -3.31526e-05 0.0153125 0.0186476 0.00527034 0.000500636 657.834 0.00418867 -0.00418873 7 
2412 1 1 -0.0071059 0.00481312 0.000508436 0 0 0 -1.29857e-05 3.2876e-05 -3.95043e-05 4.19485e-06 -2.46721e-05 -6.87114e-05 0.0240583 0.0204733 0.025596 0.000501066 715.092 0.00418867 -0.00418882 5 
1166 1 1 -0.00569125 0.00502284 0.000461131 0 0 0 8.12683e-07 2.90457e-05 -4.10215e-05 6.11017e-06 -3.64038e-05 -1.49841e-05 -0.0394027 0.00543123 0.000661755 0.00050142 762.387 0.00418867 -0.00418895 5 
222 1 1 -0.00412107 0.00529983 0.000457474 0 0 0 9.74881e-06 2.17963e-05 -5.08455e-05 2.92376e-06 -3.54144e-05 4.75509e-06 -0.0285881 -0.00747982 -0.00596881 0.000501682 797.235 0.00418867 -0.0041892 5 
2679 1 1 -0.00341319 0.00462899 0.000480975 0 0 0 4.03308e-06 2.98471e-05 -4.34e-05 1.96392e-06 -3.37208e-05 5.26849e-06 0.00187817 -0.0316399 -0.00723096 0.000501755 806.999 0.00418867 -0.00418924 4 
2253 1 1 -0.00263354 0.00520413 0.000482401 0 0 0 1.23162e-05 3.41579e-05 -3.97616e-05 -8.55101e-06 -4.42003e-05 1.25588e-05 -0.0682668 0.00964778 0.00379728 0.000501821 815.758 0.00418867 -0.00418943 6 
1233 1 1 -0.0016752 0.00503179 0.000475894 0 0 0 2.31012e-05 5.04389e-05 -4.71186e-05 -5.61676e-06 -5.80139e-05 3.63114e-05 -0.0276027 0.0472106 0.0416348 0.000501898 826.076 0.00418867 -0.00418956 4 
2032 1 1 -0.000649475 0.00546749 0.000487452 0 0 0 4.55333e-06 4.83643e-05 -5.48649e-05 7.05893e-06 -6.31594e-05 4.61445e-05 -0.0594454 -0.00111535 -0.011963 0.000501951 833.111 0.00418867 -0.00418988 4 
401 1 1 -0.0095479 0.00641036 0.000976789 0 0 0 -9.04155e-06 1.21102e-05 -2.85603e-05 -1.04645e-06 -1.26201e-05 -3.53869e-05 0.0201381 0.0465551 0.0180823 0.000500392 625.245 0.00418867 -0.00418871 3 
1503 1 1 -0.008639 0.00590867 0.000456498 0 0 0 -9.87574e-06 1.78395e-05 -2.40046e-05 1.22147e-06 -1.68933e-05 -2.68402e-05 -0.0340443 -0.00900816 -0.000861008 0.000500774 676.202 0.00418867 -0.00418876 4 
868 1 1 -0.00771432 0.0055744 0.000486759 0 0 0 -1.37499e-05 1.87031e-05 -2.39596e-05 3.36572e-06 -1.95638e-05 -3.27374e-05 -0.0105094 -0.00244414 -0.00237774 0.000500962 701.207 0.00418867 -0.0041888 5 
2305 1 1 -0.0069213 0.00619364 0.000490364 0 0 0 -1.19557e-05 1.25041e-05 -2.94233e-05 1.86244e-06 -1.719e-05 -2.44898e-05 -0.0101546 -0.0161879 -0.013938 0.000501145 725.704 0.00418867 -0.00418887 5 
1136 1 1 -0.00596259 0.00602029 0.000478652 0 0 0 -7.35916e-06 1.76838e-05 -3.10429e-05 6.10257e-06 -3.25202e-05 -2.0074e-05 -0.0167731 -0.00381918 0.033362 0.000501349 752.923 0.00418867 -0.00418897 4 
1117 1 1 -0.00500224 0.00585655 0.000530179 0 0 0 -5.04879e-07 4.43921e-05 -5.03249e-05 1.40286e-06 -5.21697e-05 -1.81884e-05 0.0747281 0.0295256 0.00872222 0.000501533 777.385 0.00418867 -0.0041891 3 
1791 1 1 -0.00417199 0.00636901 0.000462036 0 0 0 9.46843e-06 2.27146e-05 -4.4353e-05 -7.21001e-06 -3.63918e-05 -2.08331e-06 -0.0319548 -0.0128075 -0.0447591 0.000501671 795.863 0.00418867 -0.00418927 4 
57 1 1 -0.00332423 0.00587959 0.000484322 0 0 0 9.254e-06 2.01761e-05 -4.54449e-05 -2.71249e-06 -3.11761e-05 5.69661e-06 -0.00538332 0.0250277 0.015155 0.000501752 806.552 0.00418867 -0.00418935 5 
1367 1 1 -0.00148915 0.00599492 0.000450621 0 0 0 5.71896e-06 4.04744e-05 -5.42365e-05 -2.76267e-06 -5.13341e-05 3.78966e-05 -0.0466368 0.00518022 -0.000473639 0.000501908 827.447 0.00418867 -0.00418991 5 
1303 1 1 -0.00952541 0.0072808 0.000482837 0 0 0 -3.51448e-06 7.31553e-06 -9.64866e-06 4.18171e-06 -6.37554e-06 -1.22038e-05 0.00199558 0.0155734 0.0115548 0.000500327 616.62 0.00418867 -0.0041887 2 
606 1 1 -0.00871796 0.00682803 0.000753628 0 0 0 -1.36267e-05 2.0349e-05 -3.50796e-05 3.38366e-06 -2.12164e-05 -3.23544e-05 0.0159043 -0.00161971 0.00284657 0.000500682 663.907 0.00418867 -0.00418875 7 
682 1 1 -0.00783169 0.00654894 0.000464173 0 0 0 -1.06157e-05 1.58513e-05 -3.25311e-05 7.5353e-07 -1.91582e-05 -1.78545e-05 -0.0226207 -0.00840231 -0.00439736 0.000500937 697.987 0.00418867 -0.0041888 5 
1384 1 1 -0.00657235 0.00712929 0.000495788 0 0 0 -2.19329e-05 2.39643e-05 -3.70271e-05 2.34756e-05 -3.37427e-05 -1.22393e-05 -0.0542393 -0.0419221 0.0429989 0.000501237 737.992 0.00418867 -0.00418887 2 
634 1 1 -0.00556379 0.00724693 0.000477938 0 0 0 -7.00681e-06 2.26112e-05 -3.65501e-05 4.47848e-06 -2.42336e-05 -1.46172e-05 -0.00529315 0.00761525 0.0746776 0.00050145 766.377 0.00418867 -0.00418899 3 